LAMMPS DATA FILE

4032 atoms 
 4014 bonds 
 7992 angles 
 11826 dihedrals 
 0 impropers 

 3 atom types 
 4 bond types 
 7 angle types 
 8 dihedral types 
 0 improper types 

0.00000  40.0000  xlo xhi
0.00000  40.0000  ylo yhi
0.00000  40.0000  zlo zhi

Masses

1  12.01115 
2  12.01115 
3  1.00797 

Pair Coeffs

1  0.038999995200   3.875409
2  0.038999995200   3.875409
3  0.038000001100   2.449971

Bond Coeffs

1 322.715800 1.526000 
2 340.617500 1.105000 
3 322.715800 1.526000 
4 340.617500 1.105000 

Angle Coeffs

1 46.600000 110.500000 
2 46.600000 110.500000 
3 44.400000 110.000000 
4 39.500000 106.400000 
5 44.400000 110.000000 
6 44.400000 110.000000 
7 39.500000 106.400000 

Dihedral Coeffs

1 0.158100 1 3 
2 0.158100 1 3 
3 0.158100 1 3 
4 0.158100 1 3 
5 0.158100 1 3 
6 0.158100 1 3 
7 0.158100 1 3 
8 0.158100 1 3 

Atoms

1 20 1 -0.3000 20.3151  0.0276  5.8947
2 20 2 -0.2000 18.9388  0.2847  5.5347
3 20 3  0.1000 20.9817  0.7160  5.3914
4 20 3  0.1000 20.6554 -0.9830  5.9160
5 20 3  0.1000 20.4950  0.3749  6.9443
6 20 2 -0.2000 17.9259 -0.8499  5.8040
7 20 3  0.1000 18.6894  0.7787  4.6548
8 20 3  0.1000 18.7035  1.1376  6.2561
9 20 2 -0.2000 16.5647 -0.1067  5.7276
10 20 3  0.1000 18.0454 -1.3754  6.7899
11 20 3  0.1000 18.0081 -1.5801  5.0304
12 21 1 -0.3000 26.8040  1.4775  1.7919
13 21 2 -0.2000 25.5500  2.0343  2.5713
14 21 3  0.1000 26.5362  0.5716  1.1236
15 21 3  0.1000 27.4442  1.0693  2.5659
16 21 3  0.1000 27.4481  2.3004  1.2749
17 21 2 -0.2000 24.7586  3.0465  1.7946
18 21 3  0.1000 25.7861  2.4590  3.6041
19 21 3  0.1000 24.9400  1.1899  2.8034
20 21 2 -0.2000 23.4729  3.3099  2.6003
21 21 3  0.1000 24.4672  2.7365  0.7334
22 21 3  0.1000 25.4038  3.9248  1.7586
23 22 1 -0.3000 28.3582 35.8167 37.2846
24 22 2 -0.2000 29.5450 36.7258 37.1853
25 22 3  0.1000 27.8094 36.1538 38.2235
26 22 3  0.1000 28.6066 34.8286 37.4149
27 22 3  0.1000 27.6605 35.8990 36.4526
28 22 2 -0.2000 30.0557 36.7857 38.6744
29 22 3  0.1000 29.4785 37.6562 36.6065
30 22 3  0.1000 30.2882 36.0662 36.6956
31 22 2 -0.2000 31.5211 37.3611 38.7897
32 22 3  0.1000 29.9842 35.8050 39.1474
33 22 3  0.1000 29.3113 37.4130 39.1954
34 23 1 -0.3000 21.7592 14.3243 36.2244
35 23 2 -0.2000 21.0980 15.3623 37.2169
36 23 3  0.1000 21.2814 13.2723 36.3442
37 23 3  0.1000 22.8382 14.0886 36.2552
38 23 3  0.1000 21.6118 14.6401 35.2039
39 23 2 -0.2000 21.7041 15.5388 38.5099
40 23 3  0.1000 19.9895 15.2845 37.3454
41 23 3  0.1000 21.1987 16.3639 36.8364
42 23 2 -0.2000 22.7906 16.6569 38.8391
43 23 3  0.1000 22.0937 14.5717 38.9065
44 23 3  0.1000 20.9054 15.7168 39.2184
45 24 1 -0.3000  7.2028 12.3872 29.1106
46 24 2 -0.2000  7.1826 12.2398 30.6472
47 24 3  0.1000  8.0366 12.9461 28.7339
48 24 3  0.1000  6.1705 12.7812 28.7520
49 24 3  0.1000  7.4493 11.3602 28.7394
50 24 2 -0.2000  6.2133 13.0215 31.4980
51 24 3  0.1000  8.1187 12.2255 31.1493
52 24 3  0.1000  6.8000 11.2144 30.7358
53 24 2 -0.2000  6.7871 13.5644 32.8224
54 24 3  0.1000  5.2709 12.4811 31.6439
55 24 3  0.1000  5.8901 13.9676 30.8544
56 25 1 -0.3000 19.0619 13.7039  0.9619
57 25 2 -0.2000 18.1465 14.6969  1.6657
58 25 3  0.1000 18.7674 13.4267 -0.0740
59 25 3  0.1000 19.6136 12.9181  1.4167
60 25 3  0.1000 19.8937 14.3843  0.5942
61 25 2 -0.2000 18.4490 16.0534  1.1243
62 25 3  0.1000 18.1181 14.6904  2.7869
63 25 3  0.1000 17.0411 14.3460  1.4307
64 25 2 -0.2000 17.5608 15.9434 -0.1110
65 25 3  0.1000 19.5656 16.2523  0.8943
66 25 3  0.1000 18.1993 16.9212  1.8740
67 26 1 -0.3000  5.9322 18.9563  7.9853
68 26 2 -0.2000  7.4186 19.1118  8.4072
69 26 3  0.1000  5.6709 17.8664  7.7609
70 26 3  0.1000  5.5440 19.5803  7.0860
71 26 3  0.1000  5.2623 19.2364  8.8484
72 26 2 -0.2000  7.7824 20.5410  8.9821
73 26 3  0.1000  8.1126 18.7314  7.6146
74 26 3  0.1000  7.6425 18.4218  9.2680
75 26 2 -0.2000  8.4522 21.5196  7.8529
76 26 3  0.1000  8.3515 20.5440  9.8903
77 26 3  0.1000  6.7998 21.0120  9.3332
78 27 1 -0.3000  5.3276 26.6097 21.7899
79 27 2 -0.2000  6.4265 25.5479 22.0544
80 27 3  0.1000  4.6408 26.2364 21.0196
81 27 3  0.1000  5.5804 27.7050 21.6676
82 27 3  0.1000  4.7367 26.7757 22.7634
83 27 2 -0.2000  7.3822 25.9768 23.2462
84 27 3  0.1000  6.8028 25.2839 21.0426
85 27 3  0.1000  6.0318 24.6132 22.3158
86 27 2 -0.2000  8.6915 25.7140 22.5741
87 27 3  0.1000  7.2154 25.4843 24.2987
88 27 3  0.1000  7.3560 27.0607 23.4689
89 28 1 -0.3000  5.1228 23.6735 18.0416
90 28 2 -0.2000  5.9067 22.9521 17.0412
91 28 3  0.1000  3.9903 23.6969 17.9280
92 28 3  0.1000  5.4858 24.5332 18.4672
93 28 3  0.1000  5.1077 22.9996 18.9908
94 28 2 -0.2000  5.1046 21.9352 16.3088
95 28 3  0.1000  6.8635 22.7578 17.4287
96 28 3  0.1000  6.1574 23.7190 16.3207
97 28 2 -0.2000  4.1278 22.6377 15.3619
98 28 3  0.1000  4.5222 21.3849 17.0872
99 28 3  0.1000  5.7748 21.1737 15.7416
100 29 1 -0.3000 38.6151 37.3688  8.6212
101 29 2 -0.2000 37.5199 36.3549  8.8668
102 29 3  0.1000 38.1779 38.0678  7.9994
103 29 3  0.1000 39.5566 37.0108  8.0864
104 29 3  0.1000 38.9048 37.8791  9.6005
105 29 2 -0.2000 36.4519 37.1667  9.7446
106 29 3  0.1000 37.9236 35.3352  9.1671
107 29 3  0.1000 37.0175 36.1920  7.8752
108 29 2 -0.2000 35.7796 36.6213 11.0386
109 29 3  0.1000 35.5910 37.5858  9.1403
110 29 3  0.1000 37.0285 38.0668 10.0925
111 30 1 -0.3000 32.4995 12.7363 19.3397
112 30 2 -0.2000 31.9957 12.1101 20.6135
113 30 3  0.1000 31.8547 13.5204 18.9479
114 30 3  0.1000 32.7012 12.0397 18.4481
115 30 3  0.1000 33.3542 13.2359 19.6569
116 30 2 -0.2000 32.2085 12.6614 21.9998
117 30 3  0.1000 32.3695 11.0885 20.7123
118 30 3  0.1000 30.8892 11.9059 20.6032
119 30 2 -0.2000 33.0244 11.9396 23.0401
120 30 3  0.1000 31.2305 12.9469 22.4318
121 30 3  0.1000 32.7198 13.6401 21.7834
122 31 1 -0.3000 27.9448 23.7544 23.3724
123 31 2 -0.2000 28.1243 23.6845 24.9663
124 31 3  0.1000 28.3862 24.6401 22.8525
125 31 3  0.1000 26.8915 23.5946 22.9943
126 31 3  0.1000 28.5695 22.9031 22.9047
127 31 2 -0.2000 26.9045 23.0198 25.5455
128 31 3  0.1000 28.4575 24.5506 25.6446
129 31 3  0.1000 28.8657 22.9296 25.0531
130 31 2 -0.2000 26.8822 21.5741 26.0378
131 31 3  0.1000 25.8753 23.3366 25.1003
132 31 3  0.1000 26.8699 23.5362 26.3774
133 32 1 -0.3000 10.0182 24.3020 38.1030
134 32 2 -0.2000  8.5419 24.3487 38.2623
135 32 3  0.1000 10.2362 24.6105 37.0285
136 32 3  0.1000 10.5777 23.4074 38.4265
137 32 3  0.1000 10.4431 25.1198 38.6579
138 32 2 -0.2000  8.3807 25.7547 38.7990
139 32 3  0.1000  8.1461 23.5773 38.9648
140 32 3  0.1000  7.9084 24.2378 37.3550
141 32 2 -0.2000  7.0908 26.3916 38.2808
142 32 3  0.1000  9.2334 26.4310 38.7252
143 32 3  0.1000  8.2539 25.7273 39.8755
144 33 1 -0.3000 15.1098 20.7099 32.5267
145 33 2 -0.2000 16.3034 21.1056 33.2633
146 33 3  0.1000 14.9239 21.3400 31.6378
147 33 3  0.1000 14.2382 20.3579 33.0846
148 33 3  0.1000 15.3601 19.7614 32.0092
149 33 2 -0.2000 17.6847 20.8954 32.5722
150 33 3  0.1000 16.2486 20.8298 34.3855
151 33 3  0.1000 16.1783 22.2555 33.3256
152 33 2 -0.2000 18.4526 19.7690 33.1837
153 33 3  0.1000 18.2340 21.8656 32.3852
154 33 3  0.1000 17.5024 20.4068 31.5757
155 34 1 -0.3000 19.2267 26.4867 19.8337
156 34 2 -0.2000 19.6609 25.2757 20.5624
157 34 3  0.1000 18.7474 26.2097 18.9441
158 34 3  0.1000 20.0177 27.2433 19.5938
159 34 3  0.1000 18.5438 27.0952 20.5593
160 34 2 -0.2000 20.5401 25.6523 21.7163
161 34 3  0.1000 20.0273 24.4364 19.8867
162 34 3  0.1000 18.7921 24.7693 20.9604
163 34 2 -0.2000 20.0538 24.7974 22.7426
164 34 3  0.1000 20.5556 26.7321 21.8556
165 34 3  0.1000 21.5424 25.3012 21.4528
166 35 1 -0.3000 33.5916  5.5394 30.8169
167 35 2 -0.2000 33.4129  4.5778 29.6315
168 35 3  0.1000 32.8077  6.2667 30.9485
169 35 3  0.1000 34.4949  6.0556 30.9672
170 35 3  0.1000 33.6171  4.9430 31.7558
171 35 2 -0.2000 33.7487  3.2147 30.0605
172 35 3  0.1000 33.9696  5.0090 28.7637
173 35 3  0.1000 32.3559  4.5788 29.4522
174 35 2 -0.2000 34.9109  2.9115 30.9757
175 35 3  0.1000 33.5133  2.4879 29.2947
176 35 3  0.1000 32.9301  2.9506 30.6859
177 36 1 -0.3000 16.9908 33.1207 27.2799
178 36 2 -0.2000 17.3749 31.7631 28.0313
179 36 3  0.1000 16.1856 33.6537 27.8111
180 36 3  0.1000 16.8883 32.9528 26.2367
181 36 3  0.1000 17.8746 33.9054 27.4189
182 36 2 -0.2000 18.6330 31.3863 27.2865
183 36 3  0.1000 16.5491 31.0771 27.6644
184 36 3  0.1000 17.4149 31.8882 29.1665
185 36 2 -0.2000 19.5761 31.9528 28.3817
186 36 3  0.1000 18.7478 31.7724 26.2820
187 36 3  0.1000 18.7614 30.3415 27.1439
188 37 1 -0.3000 19.7293  5.4088 37.3676
189 37 2 -0.2000 19.8102  3.9531 37.1204
190 37 3  0.1000 20.1116  5.5959 38.4146
191 37 3  0.1000 18.8036  5.9813 37.0699
192 37 3  0.1000 20.5391  5.8069 36.6319
193 37 2 -0.2000 19.7982  3.0176 38.3146
194 37 3  0.1000 20.7187  3.7514 36.3550
195 37 3  0.1000 18.9024  3.7687 36.5644
196 37 2 -0.2000 18.5874  2.1877 38.3664
197 37 3  0.1000 19.9736  3.7127 39.1627
198 37 3  0.1000 20.6510  2.2714 38.2272
199 20 2 -0.2000 16.3471  0.8443  6.9353
200 20 3  0.1000 15.6574 -0.7684  5.5221
201 20 3  0.1000 16.6033  0.4821  4.7540
202 21 2 -0.2000 22.2727  2.9198  1.7842
203 21 3  0.1000 23.5044  4.2077  3.1920
204 21 3  0.1000 23.5512  2.6242  3.5104
205 22 2 -0.2000 31.6397 37.4895 40.2839
206 22 3  0.1000 31.8666 38.2699 38.1962
207 22 3  0.1000 32.2214 36.5760 38.5270
208 23 2 -0.2000 24.1279 16.0075 39.2803
209 23 3  0.1000 22.4653 17.3584 39.6049
210 23 3  0.1000 23.0153 17.3037 37.9689
211 24 2 -0.2000  5.7395 14.5713 33.4523
212 24 3  0.1000  7.5975 14.2392 32.5616
213 24 3  0.1000  7.2842 12.8871 33.5590
214 25 2 -0.2000 17.8162 17.2241 -0.8737
215 25 3  0.1000 16.4914 15.6311  0.0850
216 25 3  0.1000 17.8940 15.1170 -0.6690
217 26 2 -0.2000  9.4431 20.6480  7.0206
218 26 3  0.1000  9.0001 22.4452  8.2082
219 26 3  0.1000  7.6482 21.7834  7.2653
220 27 2 -0.2000  9.3748 26.9829 22.0678
221 27 3  0.1000  8.6294 25.0488 21.6446
222 27 3  0.1000  9.3000 25.1855 23.3395
223 28 2 -0.2000  4.4255 22.4340 13.9042
224 28 3  0.1000  3.7991 23.6406 15.6270
225 28 3  0.1000  3.1152 22.1099 15.4599
226 29 2 -0.2000 34.3969 36.1027 10.7333
227 29 3  0.1000 35.7214 37.3087 11.8406
228 29 3  0.1000 36.4662 35.7970 11.3454
229 30 2 -0.2000 34.2377 11.0640 22.5972
230 30 3  0.1000 32.4491 11.4269 23.8268
231 30 3  0.1000 33.4545 12.7968 23.6185
232 31 2 -0.2000 25.7150 21.4739 27.0071
233 31 3  0.1000 27.8942 21.2758 26.2864
234 31 3  0.1000 26.7038 20.9497 25.1738
235 32 2 -0.2000  5.8467 25.7177 38.7882
236 32 3  0.1000  6.9315 26.5715 37.1715
237 32 3  0.1000  7.0646 27.4751 38.5596
238 33 2 -0.2000 19.8080 19.9693 32.4651
239 33 3  0.1000 17.9938 18.8136 33.1683
240 33 3  0.1000 18.4790 19.9619 34.2655
241 34 2 -0.2000 18.7467 25.2008 23.4678
242 34 3  0.1000 20.9351 24.4321 23.3355
243 34 3  0.1000 19.7513 23.8682 22.2717
244 35 2 -0.2000 35.9531  2.1391 30.2535
245 35 3  0.1000 34.6838  2.4900 31.9518
246 35 3  0.1000 35.2952  3.8176 31.2961
247 36 2 -0.2000 21.0057 31.8906 28.0000
248 36 3  0.1000 19.4700 31.5020 29.4056
249 36 3  0.1000 19.3940 33.0954 28.5098
250 37 2 -0.2000 18.4463  1.3021 37.1759
251 37 3  0.1000 17.7375  2.9511 38.4903
252 37 3  0.1000 18.5548  1.5425 39.2898
253 20 2 -0.2000 14.8159  1.1146  7.3457
254 20 3  0.1000 16.9047  1.7529  6.8788
255 20 3  0.1000 16.7826  0.2702  7.8203
256 21 2 -0.2000 21.4079  1.7488  2.2194
257 21 3  0.1000 22.5208  2.8082  0.7534
258 21 3  0.1000 21.7298  3.8536  1.6972
259 22 2 -0.2000 30.9188 38.8150 40.5551
260 22 3  0.1000 32.6053 37.5490 40.6189
261 22 3  0.1000 31.2518 36.5729 40.8201
262 23 2 -0.2000 25.2376 17.0550 39.0719
263 23 3  0.1000 24.3720 15.0205 38.8233
264 23 3  0.1000 24.0534 15.7771 40.3562
265 24 2 -0.2000  5.8774 16.0481 32.9447
266 24 3  0.1000  5.6325 14.4688 34.5641
267 24 3  0.1000  4.7831 14.2905 33.0810
268 25 2 -0.2000 16.4202 17.7019 -1.4113
269 25 3  0.1000 18.6259 17.0611 -1.5551
270 25 3  0.1000 18.1982 17.9633 -0.1476
271 26 2 -0.2000 10.6317 21.4793  6.7100
272 26 3  0.1000  8.9282 20.1217  6.1633
273 26 3  0.1000  9.8378 19.8106  7.6819
274 27 2 -0.2000 10.7748 26.9250 21.4024
275 27 3  0.1000  9.1613 27.8963 22.6659
276 27 3  0.1000  8.7785 27.1851 21.1857
277 28 2 -0.2000  3.5979 23.5466 13.2078
278 28 3  0.1000  4.3671 21.4513 13.5356
279 28 3  0.1000  5.5321 22.6894 13.7523
280 29 2 -0.2000 33.3135 36.9999 11.3648
281 29 3  0.1000 34.1710 35.1008 11.0749
282 29 3  0.1000 34.2749 36.1400  9.5941
283 30 2 -0.2000 35.3265 11.8102 23.3737
284 30 3  0.1000 34.3712 10.8364 21.4607
285 30 3  0.1000 34.0277 10.1270 22.9838
286 31 2 -0.2000 26.2613 21.3777 28.3872
287 31 3  0.1000 25.2220 20.5272 26.7692
288 31 3  0.1000 24.9906 22.2866 26.9036
289 32 2 -0.2000  5.4216 26.1805 40.1885
290 32 3  0.1000  5.8622 24.6314 38.7761
291 32 3  0.1000  5.1491 26.0835 38.1461
292 33 2 -0.2000 21.0474 19.0912 32.6826
293 33 3  0.1000 20.1872 21.0747 32.4668
294 33 3  0.1000 19.6119 19.8730 31.3553
295 34 2 -0.2000 18.5224 24.5239 24.7959
296 34 3  0.1000 17.7927 25.3019 22.9384
297 34 3  0.1000 18.9570 26.2177 23.6130
298 35 2 -0.2000 36.1723  2.7687 28.8850
299 35 3  0.1000 35.9151  1.1488 30.3367
300 35 3  0.1000 36.8246  2.4502 30.8169
301 36 2 -0.2000 21.8829 32.8960 28.8051
302 36 3  0.1000 21.3370 32.0602 26.8826
303 36 3  0.1000 21.3595 30.8731 28.1790
304 37 2 -0.2000 17.1267  1.3717 36.5109
305 37 3  0.1000 18.7211  0.2957 37.3487
306 37 3  0.1000 19.1960  1.4941 36.3637
307 20 2 -0.2000 14.7042  2.6864  7.4459
308 20 3  0.1000 14.2905  0.4090  8.0096
309 20 3  0.1000 14.3193  0.8683  6.3938
310 21 2 -0.2000 21.1388  0.8227  0.9661
311 21 3  0.1000 20.5830  1.8574  2.9655
312 21 3  0.1000 22.0787  1.1592  2.8320
313 22 2 -0.2000 30.5563 38.7629 42.0108
314 22 3  0.1000 30.1838 39.1219 39.8005
315 22 3  0.1000 31.6788 39.6473 40.4664
316 23 2 -0.2000 26.2318 16.7090 37.8822
317 23 3  0.1000 25.7441 17.4669 39.8970
318 23 3  0.1000 24.7748 17.9987 38.6892
319 24 2 -0.2000  4.9103 16.9377 33.6553
320 24 3  0.1000  5.7613 16.1507 31.8237
321 24 3  0.1000  6.9057 16.4832 33.1992
322 25 2 -0.2000 16.2977 17.5459 -2.9333
323 25 3  0.1000 16.1020 18.7235 -1.1047
324 25 3  0.1000 15.7837 17.0069 -0.9278
325 26 2 -0.2000 10.5636 22.6666  5.8056
326 26 3  0.1000 11.5018 20.8035  6.5392
327 26 3  0.1000 10.8349 22.0049  7.6451
328 27 2 -0.2000 11.4277 28.1371 21.0477
329 27 3  0.1000 10.7399 26.2270 20.5293
330 27 3  0.1000 11.3844 26.4136 22.1332
331 28 2 -0.2000  4.4943 24.7543 12.9273
332 28 3  0.1000  2.8359 23.8055 13.9019
333 28 3  0.1000  3.1857 23.2826 12.2960
334 29 2 -0.2000 33.0543 38.5043 11.0306
335 29 3  0.1000 33.1210 36.8197 12.4053
336 29 3  0.1000 32.3678 36.5393 10.9843
337 30 2 -0.2000 36.1490 11.0104 24.4306
338 30 3  0.1000 35.2762 12.8403 23.6193
339 30 3  0.1000 36.1572 11.9364 22.5246
340 31 2 -0.2000 25.4154 20.4262 29.2105
341 31 3  0.1000 26.2760 22.4331 28.8952
342 31 3  0.1000 27.2411 20.9564 28.3914
343 32 2 -0.2000  5.5258 25.0425 41.1503
344 32 3  0.1000  4.3009 26.5475 40.2201
345 32 3  0.1000  5.8677 27.0899 40.5987
346 33 2 -0.2000 20.8673 17.7063 32.2380
347 33 3  0.1000 21.3297 19.1545 33.8046
348 33 3  0.1000 21.9452 19.4405 32.1567
349 34 2 -0.2000 18.4046 25.5169 26.0020
350 34 3  0.1000 19.0247 23.5550 25.0098
351 34 3  0.1000 17.5122 24.1786 24.6600
352 35 2 -0.2000 37.4882  2.5550 28.0477
353 35 3  0.1000 35.9651  3.8384 28.8625
354 35 3  0.1000 35.4162  2.4435 28.2282
355 36 2 -0.2000 22.8157 33.6520 27.9662
356 36 3  0.1000 22.4949 32.4927 29.7185
357 36 3  0.1000 21.1805 33.5770 29.3277
358 37 2 -0.2000 16.8730  0.9557 35.1045
359 37 3  0.1000 16.6742  2.3359 36.8910
360 37 3  0.1000 16.5078  0.6249 37.1141
361 20 2 -0.2000 13.2717  3.1159  7.1790
362 20 3  0.1000 15.4177  3.1667  6.8148
363 20 3  0.1000 14.8152  3.0294  8.4921
364 21 2 -0.2000 22.5245  0.5178  0.2587
365 21 3  0.1000 20.3242  0.8791  0.3075
366 21 3  0.1000 20.9879 -0.1253  1.4463
367 22 2 -0.2000 31.2048 39.8187 42.9494
368 22 3  0.1000 30.6239 37.6806 42.3885
369 22 3  0.1000 29.4720 38.9743 42.0704
370 23 2 -0.2000 27.2762 15.6159 38.0880
371 23 3  0.1000 26.4797 17.5938 37.2352
372 23 3  0.1000 25.6346 16.2879 37.1953
373 24 2 -0.2000  3.3830 16.6945 33.2284
374 24 3  0.1000  5.3216 17.8877 33.8577
375 24 3  0.1000  4.8994 16.4869 34.7157
376 25 2 -0.2000 15.8546 16.1253 -3.3288
377 25 3  0.1000 17.1633 18.0159 -3.3973
378 25 3  0.1000 15.4973 18.2345 -3.2317
379 26 2 -0.2000 10.7926 23.8750  6.6751
380 26 3  0.1000  9.7944 22.8880  5.0702
381 26 3  0.1000 11.4601 22.5490  5.2390
382 27 2 -0.2000 11.3187 28.8663 22.3757
383 27 3  0.1000 10.8413 28.6016 20.1515
384 27 3  0.1000 12.5065 27.9384 20.7726
385 28 2 -0.2000  4.8987 24.6627 11.4585
386 28 3  0.1000  5.3189 25.0214 13.5500
387 28 3  0.1000  3.7685 25.6619 12.8981
388 29 2 -0.2000 31.5426 38.8741 11.0768
389 29 3  0.1000 33.6926 39.1443 10.2593
390 29 3  0.1000 33.4355 38.9321 11.8720
391 30 2 -0.2000 37.5476 11.2912 24.7389
392 30 3  0.1000 35.9279  9.9658 24.4071
393 30 3  0.1000 35.7091 11.2891 25.3884
394 31 2 -0.2000 25.4026 20.8284 30.6575
395 31 3  0.1000 25.6747 19.3747 29.1926
396 31 3  0.1000 24.3424 20.4373 28.7371
397 32 2 -0.2000  5.6170 25.4644 42.5850
398 32 3  0.1000  6.1590 24.1909 40.7792
399 32 3  0.1000  4.4964 24.6663 40.9953
400 33 2 -0.2000 20.5503 16.7310 33.3464
401 33 3  0.1000 21.6252 17.2995 31.5411
402 33 3  0.1000 19.9620 17.7319 31.6786
403 34 2 -0.2000 18.0030 24.9870 27.3279
404 34 3  0.1000 17.9459 26.4656 25.6971
405 34 3  0.1000 19.4549 25.8887 26.1330
406 35 2 -0.2000 38.5207  1.5941 28.6085
407 35 3  0.1000 37.9331  3.5080 27.7676
408 35 3  0.1000 37.1145  2.2076 27.0778
409 36 2 -0.2000 22.4054 35.0120 27.3461
410 36 3  0.1000 23.3142 32.9817 27.2615
411 36 3  0.1000 23.6614 33.9215 28.7087
412 37 2 -0.2000 16.1151  1.8998 34.3421
413 37 3  0.1000 16.8642 -0.0466 34.9974
414 37 3  0.1000 17.9364  1.0464 34.5545
415 20 3  0.1000 12.8029  2.3507  6.4396
416 20 3  0.1000 13.2630  3.9505  6.5253
417 20 2 -0.2000 12.4774  3.5046  8.3939
418 21 3  0.1000 23.3109  0.9895  0.8517
419 21 3  0.1000 22.4515  1.2073 -0.6343
420 21 2 -0.2000 22.7843 -0.8425 -0.3956
421 22 3  0.1000 32.1720 39.4829 43.4001
422 22 3  0.1000 30.4953 39.9189 43.7785
423 22 2 -0.2000 31.2809 41.2326 42.5013
424 23 3  0.1000 27.4039 14.9507 37.2310
425 23 3  0.1000 26.9882 15.1002 38.9536
426 23 2 -0.2000 28.4683 16.5151 38.3756
427 24 3  0.1000  2.6213 15.9922 33.7602
428 24 3  0.1000  3.4363 16.1927 32.2622
429 24 2 -0.2000  2.7116 18.0901 33.0685
430 25 3  0.1000 14.7881 16.0099 -2.9495
431 25 3  0.1000 16.5870 15.2942 -2.8990
432 25 2 -0.2000 15.9032 16.2154 -4.7753
433 26 3  0.1000 11.8032 24.0570  7.0795
434 26 3  0.1000 10.1747 23.7234  7.5587
435 26 2 -0.2000 10.1095 25.0389  5.9495
436 27 3  0.1000 11.2877 28.2500 23.2667
437 27 3  0.1000 10.2966 29.3625 22.3531
438 27 2 -0.2000 12.5000 29.9214 22.6857
439 28 3  0.1000  4.1932 25.1126 10.6863
440 28 3  0.1000  4.6716 23.5833 11.3165
441 28 2 -0.2000  6.2833 24.7625 11.0347
442 29 3  0.1000 31.1962 39.2794 12.0219
443 29 3  0.1000 30.9375 37.9728 10.9074
444 29 2 -0.2000 31.1448 39.9777 10.1485
445 30 3  0.1000 38.2753 11.8205 24.1161
446 30 3  0.1000 38.1258 10.3259 24.7812
447 30 2 -0.2000 37.7644 11.9664 26.0955
448 31 3  0.1000 24.7406 21.6469 30.9478
449 31 3  0.1000 26.3673 21.2783 30.7591
450 31 2 -0.2000 25.3494 19.6768 31.7192
451 32 3  0.1000  5.2116 26.5108 42.7980
452 32 3  0.1000  6.6037 25.6794 42.6963
453 32 2 -0.2000  5.4629 24.2755 43.4626
454 33 3  0.1000 19.7553 16.9909 34.0534
455 33 3  0.1000 21.4505 16.6027 34.0316
456 33 2 -0.2000 20.4338 15.3472 32.9555
457 34 3  0.1000 18.5388 25.3312 28.2819
458 34 3  0.1000 18.2891 23.9273 27.2336
459 34 2 -0.2000 16.4107 25.1430 27.3669
460 35 3  0.1000 38.2454  0.5339 28.6900
461 35 3  0.1000 38.4266  1.7989 29.7104
462 35 2 -0.2000 39.8529  2.1411 28.2523
463 36 3  0.1000 21.6338 34.8339 26.6055
464 36 3  0.1000 23.2759 35.1771 26.7804
465 36 2 -0.2000 22.2343 36.2099 28.4033
466 37 3  0.1000 16.3100  1.7323 33.2587
467 37 3  0.1000 16.7157  2.7990 34.5309
468 37 2 -0.2000 14.6335  2.1637 34.6685
469 20 2 -0.2000 11.1210  3.9074  7.9504
470 20 3  0.1000 12.9604  4.0996  9.1907
471 20 3  0.1000 12.3208  2.5435  8.8889
472 21 2 -0.2000 21.7868 -1.6425 -1.3481
473 21 3  0.1000 23.3238 -1.5713  0.2088
474 21 3  0.1000 23.5924 -0.5388 -1.1319
475 22 2 -0.2000 31.6348 42.0633 43.6930
476 22 3  0.1000 30.2436 41.4962 42.0805
477 22 3  0.1000 32.1226 41.4194 41.8431
478 23 2 -0.2000 29.2903 15.3809 38.9626
479 23 3  0.1000 28.1863 17.4495 38.9227
480 23 3  0.1000 28.8516 16.8111 37.4860
481 24 2 -0.2000  2.0963 18.2747 31.7514
482 24 3  0.1000  3.3746 18.8806 33.3044
483 24 3  0.1000  1.9303 18.0897 33.7991
484 25 2 -0.2000 16.4419 14.9252 -5.3091
485 25 3  0.1000 16.5122 17.1152 -5.1863
486 25 3  0.1000 14.8480 16.3828 -5.0787
487 26 2 -0.2000 10.6844 26.3982  6.0856
488 26 3  0.1000  9.0290 25.0560  6.1921
489 26 3  0.1000 10.1525 24.6721  4.8997
490 27 2 -0.2000 11.8122 31.1511 23.1382
491 27 3  0.1000 13.2339 30.1958 21.9488
492 27 3  0.1000 13.2567 29.4080 23.4127
493 28 2 -0.2000  6.8948 26.1051 10.5994
494 28 3  0.1000  6.5689 24.0069 10.2841
495 28 3  0.1000  6.7677 24.4881 11.9484
496 29 2 -0.2000 31.9257 41.2373 10.7044
497 29 3  0.1000 30.1274 40.1141 10.0905
498 29 3  0.1000 31.5361 39.7654  9.1330
499 30 2 -0.2000 39.3027 12.2229 26.1756
500 30 3  0.1000 37.3975 11.4853 26.9913
501 30 3  0.1000 37.2690 12.9350 25.9375
502 31 2 -0.2000 26.5734 19.0150 32.3659
503 31 3  0.1000 24.6538 18.9100 31.5527
504 31 3  0.1000 24.8241 20.2006 32.4949
505 32 2 -0.2000  4.3977 24.6489 44.4059
506 32 3  0.1000  6.4602 23.9125 43.9698
507 32 3  0.1000  5.1403 23.4403 42.8378
508 33 2 -0.2000 20.2789 15.0735 31.4436
509 33 3  0.1000 19.7004 14.8412 33.4867
510 33 3  0.1000 21.2731 14.9417 33.3462
511 34 2 -0.2000 15.8710 23.9527 26.7058
512 34 3  0.1000 16.0637 26.1579 27.0064
513 34 3  0.1000 15.9108 25.0334 28.3839
514 35 2 -0.2000 40.9826  1.9228 29.2403
515 35 3  0.1000 39.7007  3.1302 27.8829
516 35 3  0.1000 40.1715  1.6649 27.3829
517 36 2 -0.2000 20.9410 36.6065 29.1103
518 36 3  0.1000 22.8638 37.1252 28.1221
519 36 3  0.1000 22.8547 35.9257 29.2764
520 37 2 -0.2000 14.3096  2.7374 36.0383
521 37 3  0.1000 14.0167  1.2814 34.4397
522 37 3  0.1000 14.4232  2.9292 33.8773
523 20 2 -0.2000 10.1332  4.0681  9.1367
524 20 3  0.1000 10.7973  3.0731  7.2629
525 20 3  0.1000 11.1126  4.8556  7.4281
526 21 2 -0.2000 22.2480 -3.0942 -1.5942
527 21 3  0.1000 21.4898 -0.9634 -2.1925
528 21 3  0.1000 20.7540 -1.7466 -0.8786
529 22 2 -0.2000 30.8292 43.3476 43.8684
530 22 3  0.1000 32.6703 42.3874 43.8814
531 22 3  0.1000 31.5179 41.4413 44.6030
532 23 2 -0.2000 30.8238 15.6435 38.7683
533 23 3  0.1000 28.8654 14.4070 38.8840
534 23 3  0.1000 29.2201 15.5494 40.1098
535 24 2 -0.2000  2.8289 19.3646 31.0073
536 24 3  0.1000  1.0965 18.5799 31.9629
537 24 3  0.1000  1.9564 17.3846 31.1405
538 25 2 -0.2000 15.6256 13.7183 -5.8474
539 25 3  0.1000 17.2730 14.5020 -4.6618
540 25 3  0.1000 16.9744 15.2800 -6.1965
541 26 2 -0.2000 12.2786 26.4851  6.2143
542 26 3  0.1000 10.1012 27.0505  6.8619
543 26 3  0.1000 10.4256 26.9111  5.1296
544 27 2 -0.2000 12.7998 32.2193 23.1649
545 27 3  0.1000 11.2418 30.8756 24.0673
546 27 3  0.1000 11.1401 31.3788 22.3653
547 28 2 -0.2000  6.5251 27.3013 11.3675
548 28 3  0.1000  6.8005 26.2706  9.4833
549 28 3  0.1000  7.9657 26.0024 10.8074
550 29 2 -0.2000 31.0269 42.5193 11.0397
551 29 3  0.1000 32.7921 41.5296 10.0343
552 29 3  0.1000 32.4997 40.9880 11.6780
553 30 2 -0.2000 39.5130 13.6062 25.3980
554 30 3  0.1000 40.0474 11.3477 25.9033
555 30 3  0.1000 39.5250 12.4626 27.2383
556 31 2 -0.2000 26.0961 18.2838 33.6692
557 31 3  0.1000 27.5884 19.5304 32.4199
558 31 3  0.1000 26.8227 18.2399 31.6341
559 32 2 -0.2000  4.7389 24.5719 45.8887
560 32 3  0.1000  3.3956 24.4773 43.9121
561 32 3  0.1000  4.4095 25.6922 44.2957
562 33 2 -0.2000 20.8281 13.6858 31.2185
563 33 3  0.1000 20.8494 15.4983 30.6570
564 33 3  0.1000 19.2906 15.0981 31.1750
565 34 2 -0.2000 14.5492 23.3272 27.2467
566 34 3  0.1000 16.6843 23.3887 26.4805
567 34 3  0.1000 15.5329 24.3519 25.6363
568 35 2 -0.2000 40.7618  0.8361 30.2269
569 35 3  0.1000 41.2629  2.8371 29.7142
570 35 3  0.1000 41.8373  1.6205 28.5869
571 36 2 -0.2000 21.2721 38.0885 29.3512
572 36 3  0.1000 20.5596 36.0716 30.0013
573 36 3  0.1000 20.0899 36.5694 28.3707
574 37 2 -0.2000 12.9668  3.5017 36.2975
575 37 3  0.1000 15.1112  3.3838 36.4891
576 37 3  0.1000 14.2155  1.9070 36.6749
577 20 2 -0.2000  8.9784  3.0689  9.0568
578 20 3  0.1000  9.9150  5.1054  9.4759
579 20 3  0.1000 10.6986  3.6064  9.9854
580 21 2 -0.2000 21.9509 -3.4616 -3.0294
581 21 3  0.1000 21.9097 -3.8233 -0.8412
582 21 3  0.1000 23.4193 -3.2004 -1.5564
583 22 2 -0.2000 30.5993 43.9696 42.5173
584 22 3  0.1000 31.2433 44.1243 44.5094
585 22 3  0.1000 29.8983 43.0970 44.2819
586 23 2 -0.2000 31.1797 14.4572 37.8459
587 23 3  0.1000 31.3534 15.7682 39.7810
588 23 3  0.1000 30.9216 16.5981 38.2524
589 24 2 -0.2000  4.0498 18.8541 30.1972
590 24 3  0.1000  2.9486 20.3423 31.5161
591 24 3  0.1000  2.0392 19.6840 30.3267
592 25 2 -0.2000 16.5150 12.4208 -5.9276
593 25 3  0.1000 15.2369 13.9679 -6.9109
594 25 3  0.1000 14.7168 13.4225 -5.1650
595 26 2 -0.2000 12.7721 26.5042  7.6816
596 26 3  0.1000 12.8427 27.2074  5.4910
597 26 3  0.1000 12.5588 25.5579  5.7527
598 27 2 -0.2000 12.2086 33.6740 23.1327
599 27 3  0.1000 13.6006 32.2152 22.4060
600 27 3  0.1000 13.3437 32.0962 24.0732
601 28 2 -0.2000  5.4284 28.1805 10.7311
602 28 3  0.1000  7.3212 27.8184 11.6858
603 28 3  0.1000  6.0703 26.8678 12.2552
604 29 2 -0.2000 30.8547 43.5653  9.9057
605 29 3  0.1000 31.5352 42.9696 11.9235
606 29 3  0.1000 30.0049 42.2445 11.3750
607 30 2 -0.2000 39.2689 14.6477 26.5293
608 30 3  0.1000 38.9402 13.6458 24.5001
609 30 3  0.1000 40.6077 13.6609 25.0430
610 31 2 -0.2000 27.0125 18.5789 34.8638
611 31 3  0.1000 26.0749 17.2146 33.5343
612 31 3  0.1000 25.1463 18.5503 33.9176
613 32 2 -0.2000  3.7406 23.6163 46.5182
614 32 3  0.1000  4.9422 25.4237 46.4982
615 32 3  0.1000  5.6726 23.9822 45.9324
616 33 2 -0.2000 21.2724 13.3339 29.7124
617 33 3  0.1000 20.2307 12.8669 31.6472
618 33 3  0.1000 21.6871 13.5809 31.8064
619 34 2 -0.2000 14.0188 22.0529 26.6714
620 34 3  0.1000 13.7268 24.0204 27.3746
621 34 3  0.1000 14.8684 23.0176 28.2456
622 35 2 -0.2000 40.6842 -0.5672 29.4467
623 35 3  0.1000 39.8965  1.0166 30.9531
624 35 3  0.1000 41.7087  0.8649 30.8637
625 36 2 -0.2000 20.6438 38.5270 30.6818
626 36 3  0.1000 21.2379 38.8013 28.5353
627 36 3  0.1000 22.3078 38.0632 29.5423
628 37 2 -0.2000 12.8223  5.0755 35.9465
629 37 3  0.1000 12.4965  3.4164 37.3805
630 37 3  0.1000 12.2185  2.9844 35.6276
631 20 2 -0.2000  8.4102  2.8678 10.4757
632 20 3  0.1000  9.2302  2.1084  8.5868
633 20 3  0.1000  8.0962  3.5162  8.5501
634 21 2 -0.2000 20.9776 -2.6002 -3.7247
635 21 3  0.1000 21.7432 -4.5313 -3.2228
636 21 3  0.1000 22.9677 -3.2361 -3.5851
637 22 2 -0.2000 31.3411 45.2517 42.7465
638 22 3  0.1000 29.5480 44.3121 42.2129
639 22 3  0.1000 31.0526 43.3801 41.6421
640 23 2 -0.2000 32.2982 14.7641 36.9204
641 23 3  0.1000 30.4471 14.0713 37.1119
642 23 3  0.1000 31.3622 13.5532 38.4592
643 24 2 -0.2000  3.7525 19.0373 28.7359
644 24 3  0.1000  4.5759 18.0421 30.5332
645 24 3  0.1000  4.7079 19.6914 30.3390
646 25 2 -0.2000 17.2221 12.2349 -4.5143
647 25 3  0.1000 17.2491 12.5172 -6.7567
648 25 3  0.1000 15.9882 11.5139 -6.2678
649 26 2 -0.2000 13.9577 25.5996  7.5948
650 26 3  0.1000 12.1301 26.3370  8.4544
651 26 3  0.1000 13.1009 27.5131  7.9696
652 27 2 -0.2000 12.7967 34.4190 21.9357
653 27 3  0.1000 12.4190 34.1382 24.1147
654 27 3  0.1000 11.1401 33.6795 23.0581
655 28 2 -0.2000  5.9171 29.4172  9.9148
656 28 3  0.1000  4.6142 28.5632 11.3157
657 28 3  0.1000  4.9382 27.4965  9.9866
658 29 2 -0.2000 30.9756 44.9922 10.5294
659 29 3  0.1000 29.9344 43.2347  9.2370
660 29 3  0.1000 31.8456 43.5213  9.2689
661 30 2 -0.2000 40.6787 15.1557 26.9063
662 30 3  0.1000 38.5364 14.3982 27.3677
663 30 3  0.1000 38.8150 15.4898 26.0600
664 31 2 -0.2000 27.6264 20.0803 35.1476
665 31 3  0.1000 27.8651 17.8291 35.0980
666 31 3  0.1000 26.4265 18.3372 35.7308
667 32 2 -0.2000  2.4378 24.3741 46.9469
668 32 3  0.1000  4.1093 23.1823 47.5094
669 32 3  0.1000  3.3654 22.7641 45.8504
670 33 2 -0.2000 22.4518 14.2311 29.3654
671 33 3  0.1000 20.4034 13.5721 29.0594
672 33 3  0.1000 21.5515 12.2119 29.6235
673 34 2 -0.2000 14.9507 21.2345 25.7042
674 34 3  0.1000 12.9720 22.1698 26.3460
675 34 3  0.1000 13.8753 21.3833 27.5211
676 35 2 -0.2000 40.8123 -1.6390 30.5311
677 35 3  0.1000 41.1792 -0.6636 28.5593
678 35 3  0.1000 39.6949 -0.6860 29.0337
679 36 2 -0.2000 19.2131 39.1189 30.5317
680 36 3  0.1000 21.1091 39.2366 31.4377
681 36 3  0.1000 20.6281 37.6093 31.2985
682 37 2 -0.2000 13.9968  5.7520 35.1997
683 37 3  0.1000 12.5282  5.6900 36.8949
684 37 3  0.1000 11.8136  5.1041 35.4513
685 20 2 -0.2000  6.9330  2.4353 10.3342
686 20 3  0.1000  8.6523  3.7348 11.0973
687 20 3  0.1000  8.8886  2.0145 11.0913
688 21 2 -0.2000 20.2606 -3.4844 -4.8143
689 21 3  0.1000 21.4281 -1.5869 -3.9858
690 21 3  0.1000 20.1360 -2.3934 -3.0818
691 22 2 -0.2000 32.8484 45.0182 42.4357
692 22 3  0.1000 31.2681 45.8166 43.7429
693 22 3  0.1000 30.9736 45.9055 42.0040
694 23 2 -0.2000 31.9181 14.2795 35.4886
695 23 3  0.1000 33.4096 14.7138 37.3466
696 23 3  0.1000 32.2576 15.8024 36.8286
697 24 2 -0.2000  3.8389 20.4490 28.2191
698 24 3  0.1000  2.6707 18.8405 28.4791
699 24 3  0.1000  4.4895 18.4128 28.1758
700 25 2 -0.2000 17.8670 10.8475 -4.3600
701 25 3  0.1000 16.7166 12.5990 -3.6517
702 25 3  0.1000 18.1331 12.9198 -4.5713
703 26 2 -0.2000 14.9369 26.1471  8.6533
704 26 3  0.1000 14.5807 25.6017  6.5932
705 26 3  0.1000 13.5467 24.5933  7.7577
706 27 2 -0.2000 13.5686 35.5746 22.6727
707 27 3  0.1000 12.2515 34.7119 21.0345
708 27 3  0.1000 13.5818 33.8016 21.5019
709 28 2 -0.2000  6.9819 28.8801  8.9386
710 28 3  0.1000  6.1320 30.3165 10.5589
711 28 3  0.1000  5.0437 29.7678  9.2923
712 29 2 -0.2000 29.5718 45.6373 10.7096
713 29 3  0.1000 31.7514 45.7095 10.2308