LAMMPS DATA FILE

4032 atoms 
 4014 bonds 
 7992 angles 
 11826 dihedrals 
 0 impropers 

 3 atom types 
 4 bond types 
 7 angle types 
 8 dihedral types 
 0 improper types 

0.00000  40.0000  xlo xhi
0.00000  40.0000  ylo yhi
0.00000  40.0000  zlo zhi

Masses

1  12.01115 
2  12.01115 
3  1.00797 

Pair Coeffs

1  0.038999995200   3.875409
2  0.038999995200   3.875409
3  0.038000001100   2.449971

Bond Coeffs

1 322.715800 1.526000 
2 340.617500 1.105000 
3 322.715800 1.526000 
4 340.617500 1.105000 

Angle Coeffs

1 46.600000 110.500000 
2 46.600000 110.500000 
3 44.400000 110.000000 
4 39.500000 106.400000 
5 44.400000 110.000000 
6 44.400000 110.000000 
7 39.500000 106.400000 

Dihedral Coeffs

1 0.158100 1 3 
2 0.158100 1 3 
3 0.158100 1 3 
4 0.158100 1 3 
5 0.158100 1 3 
6 0.158100 1 3 
7 0.158100 1 3 
8 0.158100 1 3 

Atoms

1 20 1 -0.3000  5.9044 14.8919 12.3679
2 20 2 -0.2000  5.2822 16.2251 11.8914
3 20 3  0.1000  6.4606 15.0334 13.3428
4 20 3  0.1000  6.3552 14.3121 11.4852
5 20 3  0.1000  5.0144 14.2755 12.7343
6 20 2 -0.2000  6.4866 17.1665 11.6203
7 20 3  0.1000  4.6949 16.8610 12.5407
8 20 3  0.1000  4.7077 16.0188 10.9950
9 20 2 -0.2000  6.8960 18.0781 12.7723
10 20 3  0.1000  6.2458 17.7501 10.7413
11 20 3  0.1000  7.4475 16.5997 11.4493
12 21 1 -0.3000 16.4107 32.3887 33.0130
13 21 2 -0.2000 16.8450 33.8263 33.0504
14 21 3  0.1000 16.1900 32.0881 31.9767
15 21 3  0.1000 15.6520 32.1136 33.7516
16 21 3  0.1000 17.2652 31.6723 33.0820
17 21 2 -0.2000 17.0285 34.2428 34.4824
18 21 3  0.1000 16.1055 34.5094 32.5249
19 21 3  0.1000 17.8019 33.9656 32.4955
20 21 2 -0.2000 15.8065 33.9767 35.3442
21 21 3  0.1000 17.6805 35.1428 34.5336
22 21 3  0.1000 17.6983 33.4884 34.8360
23 22 1 -0.3000 16.6971 31.7000 20.4851
24 22 2 -0.2000 17.7041 30.6852 20.6906
25 22 3  0.1000 17.1366 32.7740 20.0672
26 22 3  0.1000 15.8163 31.8030 21.2343
27 22 3  0.1000 16.1619 31.3696 19.5802
28 22 2 -0.2000 16.9874 29.3928 20.8112
29 22 3  0.1000 18.3664 30.9929 21.5721
30 22 3  0.1000 18.3605 30.7043 19.7907
31 22 2 -0.2000 17.5809 28.4565 21.8970
32 22 3  0.1000 17.1182 28.8065 19.9364
33 22 3  0.1000 15.9678 29.5524 21.0389
34 23 1 -0.3000 15.4966 27.6347  4.4868
35 23 2 -0.2000 14.3044 27.7303  3.5569
36 23 3  0.1000 15.1651 27.6841  5.5970
37 23 3  0.1000 16.2237 28.5210  4.4337
38 23 3  0.1000 16.0959 26.7521  4.2749
39 23 2 -0.2000 14.8244 26.8093  2.4427
40 23 3  0.1000 14.0182 28.7817  3.2527
41 23 3  0.1000 13.4096 27.2584  4.0556
42 23 2 -0.2000 13.8884 26.8903  1.3156
43 23 3  0.1000 15.0482 25.8516  2.8834
44 23 3  0.1000 15.7719 27.2630  2.0950
45 24 1 -0.3000 32.0664  2.6246 14.0061
46 24 2 -0.2000 32.4976  3.6881 13.1534
47 24 3  0.1000 31.0526  2.8902 14.3491
48 24 3  0.1000 32.7872  2.2608 14.7517
49 24 3  0.1000 31.9656  1.7727 13.2817
50 24 2 -0.2000 33.9028  3.4696 12.6266
51 24 3  0.1000 32.1988  4.7080 13.5782
52 24 3  0.1000 31.8278  3.4489 12.3641
53 24 2 -0.2000 35.0527  3.4356 13.6850
54 24 3  0.1000 34.1479  4.2293 11.7635
55 24 3  0.1000 33.8686  2.4815 12.1895
56 25 1 -0.3000 18.0072  1.1789 14.9220
57 25 2 -0.2000 18.5441  1.5766 16.3641
58 25 3  0.1000 18.2179  0.2015 14.6118
59 25 3  0.1000 18.2931  1.9624 14.1024
60 25 3  0.1000 16.9370  1.1938 14.8259
61 25 2 -0.2000 19.9476  2.0412 16.5824
62 25 3  0.1000 18.2245  0.8068 17.0645
63 25 3  0.1000 17.9336  2.4637 16.5327
64 25 2 -0.2000 20.5294  3.0025 15.5696
65 25 3  0.1000 20.4832  1.1247 16.7536
66 25 3  0.1000 20.0099  2.6275 17.5825
67 26 1 -0.3000 20.5348 35.9111  1.9546
68 26 2 -0.2000 19.4191 36.0816  2.9210
69 26 3  0.1000 21.3392 36.5769  2.2777
70 26 3  0.1000 20.4218 36.0017  0.8272
71 26 3  0.1000 20.8680 34.9441  2.2159
72 26 2 -0.2000 19.9279 35.6827  4.2462
73 26 3  0.1000 18.4400 35.5747  2.9024
74 26 3  0.1000 19.1125 37.1671  2.9514
75 26 2 -0.2000 20.3416 36.9198  5.0294
76 26 3  0.1000 20.5133 34.7877  4.3258
77 26 3  0.1000 18.9474 35.4502  4.7468
78 27 1 -0.3000  9.8597  4.9393 32.7691
79 27 2 -0.2000  8.3484  4.4866 32.9022
80 27 3  0.1000 10.2830  5.2898 33.7403
81 27 3  0.1000 10.0162  5.5271 31.9497
82 27 3  0.1000 10.4780  4.0916 32.5425
83 27 2 -0.2000  7.6468  4.5851 31.5819
84 27 3  0.1000  7.8930  5.0570 33.6529
85 27 3  0.1000  8.3781  3.3949 33.3351
86 27 2 -0.2000  7.9772  5.7728 30.6940
87 27 3  0.1000  6.6323  4.3931 31.6285
88 27 3  0.1000  7.9629  3.6708 31.0961
89 28 1 -0.3000  0.9942 19.5242  8.2432
90 28 2 -0.2000  1.8651 18.4690  7.5256
91 28 3  0.1000  1.2952 19.6049  9.2675
92 28 3  0.1000  0.0130 19.7117  7.8533
93 28 3  0.1000  1.5283 20.3879  7.8711
94 28 2 -0.2000  2.4043 18.7293  6.1188
95 28 3  0.1000  1.3940 17.3517  7.4964
96 28 3  0.1000  2.7658 18.3262  8.1474
97 28 2 -0.2000  3.8647 18.6844  5.9824
98 28 3  0.1000  2.0012 19.5758  5.6274
99 28 3  0.1000  1.9778 17.8727  5.5003
100 29 1 -0.3000  5.2342 36.4992 23.9292
101 29 2 -0.2000  4.5191 35.3216 24.5492
102 29 3  0.1000  4.4463 37.1079 23.4954
103 29 3  0.1000  6.0538 36.1458 23.3302
104 29 3  0.1000  5.7531 37.0060 24.7445
105 29 2 -0.2000  5.0809 34.5097 25.7143
106 29 3  0.1000  4.1871 34.6273 23.8540
107 29 3  0.1000  3.6015 35.7048 25.0007
108 29 2 -0.2000  4.7317 33.1233 25.1618
109 29 3  0.1000  4.7025 34.7047 26.7613
110 29 3  0.1000  6.2195 34.5812 25.7673
111 30 1 -0.3000 11.2556 14.6686 31.7992
112 30 2 -0.2000  9.8745 15.2783 31.8746
113 30 3  0.1000 11.9776 15.0891 31.0554
114 30 3  0.1000 11.2237 13.5327 31.7293
115 30 3  0.1000 11.7313 14.8419 32.7393
116 30 2 -0.2000  9.4245 15.3286 33.3686
117 30 3  0.1000  9.1283 14.8663 31.1866
118 30 3  0.1000 10.0802 16.2767 31.4474
119 30 2 -0.2000  9.5169 14.0063 34.1228
120 30 3  0.1000  8.5070 15.8103 33.4931
121 30 3  0.1000 10.1003 16.0964 33.8690
122 31 1 -0.3000 26.4040 19.0173 36.3691
123 31 2 -0.2000 25.4641 17.8504 35.8973
124 31 3  0.1000 27.5328 18.7423 36.5149
125 31 3  0.1000 26.0374 19.6740 37.1349
126 31 3  0.1000 26.3760 19.6214 35.4884
127 31 2 -0.2000 25.7012 16.6448 36.7970
128 31 3  0.1000 25.4939 17.6860 34.8132
129 31 3  0.1000 24.4226 18.3188 35.9654
130 31 2 -0.2000 26.3711 15.3253 36.3022
131 31 3  0.1000 24.8450 16.3392 37.4601
132 31 3  0.1000 26.3946 17.0067 37.5481
133 32 1 -0.3000 13.5451 27.2967 12.2072
134 32 2 -0.2000 14.1278 28.5114 11.4312
135 32 3  0.1000 13.6636 27.3983 13.3464
136 32 3  0.1000 14.1554 26.3746 11.9895
137 32 3  0.1000 12.4676 27.1032 11.9544
138 32 2 -0.2000 15.6331 28.4748 11.3007
139 32 3  0.1000 13.8125 29.5059 11.8937
140 32 3  0.1000 13.7209 28.4709 10.4385
141 32 2 -0.2000 16.5539 29.7150 11.2359
142 32 3  0.1000 15.9894 27.6989 10.6225
143 32 3  0.1000 15.8958 27.9198 12.2431
144 33 1 -0.3000 23.1676  2.7689 33.4734
145 33 2 -0.2000 21.9306  2.9212 32.6399
146 33 3  0.1000 23.8845  3.4412 32.8793
147 33 3  0.1000 23.5847  1.7478 33.6578
148 33 3  0.1000 23.1104  3.1601 34.5301
149 33 2 -0.2000 21.9901  3.3253 31.1633
150 33 3  0.1000 21.0864  3.3234 33.2705
151 33 3  0.1000 21.6556  1.8700 32.6732
152 33 2 -0.2000 20.8963  2.6139 30.3494
153 33 3  0.1000 23.0348  3.1991 30.7328
154 33 3  0.1000 21.7375  4.4458 30.9564
155 34 1 -0.3000 31.2332 25.3237  5.6975
156 34 2 -0.2000 30.6229 24.7854  4.3904
157 34 3  0.1000 31.1573 24.5575  6.4508
158 34 3  0.1000 30.8292 26.3288  5.8968
159 34 3  0.1000 32.2557 25.5496  5.5359
160 34 2 -0.2000 31.6874 24.8189  3.2042
161 34 3  0.1000 29.4990 24.9987  4.1795
162 34 3  0.1000 30.4496 23.6921  4.6298
163 34 2 -0.2000 30.7880 25.1048  2.0300
164 34 3  0.1000 32.2069 23.8221  3.2232
165 34 3  0.1000 32.4594 25.6089  3.3754
166 35 1 -0.3000  2.0720 37.2586  1.8355
167 35 2 -0.2000  3.2548 36.3370  2.2645
168 35 3  0.1000  1.4321 36.7304  1.1386
169 35 3  0.1000  2.2875 38.2078  1.4356
170 35 3  0.1000  1.4609 37.4101  2.6450
171 35 2 -0.2000  4.6795 36.7569  2.0283
172 35 3  0.1000  3.1482 35.4166  1.6026
173 35 3  0.1000  3.0826 35.9423  3.2591
174 35 2 -0.2000  5.1883 37.7036  3.1363
175 35 3  0.1000  4.9513 37.0156  1.0224
176 35 3  0.1000  5.1246 35.7085  2.1854
177 36 1 -0.3000 39.4192 22.1797 27.6101
178 36 2 -0.2000 39.9867 22.9594 26.5671
179 36 3  0.1000 38.4793 21.7691 27.3666
180 36 3  0.1000 39.1390 22.8369 28.4708
181 36 3  0.1000 40.0067 21.2721 27.9493
182 36 2 -0.2000 39.0479 24.0276 25.8704
183 36 3  0.1000 40.6006 22.4151 25.8937
184 36 3  0.1000 40.8148 23.4671 27.0356
185 36 2 -0.2000 37.9335 23.3599 25.1584
186 36 3  0.1000 39.7639 24.5027 25.1156
187 36 3  0.1000 38.6199 24.7537 26.6527
188 37 1 -0.3000  2.9262  9.0478  8.0284
189 37 2 -0.2000  3.6250  7.7548  8.4558
190 37 3  0.1000  2.1615  9.2766  8.7697
191 37 3  0.1000  2.4884  9.0410  7.0358
192 37 3  0.1000  3.6010  9.8858  8.0342
193 37 2 -0.2000  3.4206  6.4807  7.5479
194 37 3  0.1000  3.4436  7.5390  9.5053
195 37 3  0.1000  4.6387  8.0192  8.5214
196 37 2 -0.2000  3.2530  5.0697  8.0682
197 37 3  0.1000  4.3152  6.5933  6.8520
198 37 3  0.1000  2.5650  6.6100  6.8591
199 20 2 -0.2000  7.3609 17.4577 14.1323
200 20 3  0.1000  6.1642 18.8180 12.9598
201 20 3  0.1000  7.6634 18.7501 12.2957
202 21 2 -0.2000 15.9879 33.5733 36.8061
203 21 3  0.1000 14.9126 33.6250 34.7682
204 21 3  0.1000 15.3949 35.0982 35.5170
205 22 2 -0.2000 16.7539 27.2354 22.0819
206 22 3  0.1000 17.8469 28.9627 22.8896
207 22 3  0.1000 18.6051 28.1802 21.5500
208 23 2 -0.2000 12.5125 26.3538  1.6008
209 23 3  0.1000 14.2319 26.4932  0.2910
210 23 3  0.1000 13.8494 27.9533  1.0821
211 24 2 -0.2000 34.9400  4.6741 14.6501
212 24 3  0.1000 35.9506  3.2921 13.3372
213 24 3  0.1000 34.9570  2.4857 14.3110
214 25 2 -0.2000 21.2737  3.9823 16.4425
215 25 3  0.1000 19.9907  3.4026 14.6606
216 25 3  0.1000 21.3196  2.3939 15.0370
217 26 2 -0.2000 21.3615 36.3560  6.0833
218 26 3  0.1000 19.4977 37.4600  5.5194
219 26 3  0.1000 20.7051 37.6183  4.1781
220 27 2 -0.2000  7.7393  5.7073 29.2309
221 27 3  0.1000  8.8544  6.4043 30.9774
222 27 3  0.1000  7.2360  6.4796 31.0011
223 28 2 -0.2000  4.1863 17.1800  6.0968
224 28 3  0.1000  4.4580 19.3070  6.7255
225 28 3  0.1000  4.1955 19.0065  4.9019
226 29 2 -0.2000  5.4273 32.4608 23.9521
227 29 3  0.1000  3.6106 32.9878 25.0253
228 29 3  0.1000  4.9732 32.4715 26.0300
229 30 2 -0.2000  8.2327 13.5393 34.7985
230 30 3  0.1000 10.4435 14.0458 34.8405
231 30 3  0.1000  9.6592 13.2232 33.4842
232 31 2 -0.2000 27.8500 15.5739 35.8701
233 31 3  0.1000 25.8368 14.6294 35.6213
234 31 3  0.1000 26.2835 14.6777 37.1499
235 32 2 -0.2000 17.8782 29.3671 10.6011
236 32 3  0.1000 16.4664 30.4732 12.1272
237 32 3  0.1000 16.2044 30.3504 10.4372
238 33 2 -0.2000 20.0441  3.5431 29.4319
239 33 3  0.1000 20.3393  1.7296 30.8013
240 33 3  0.1000 21.4676  2.1291 29.5869
241 34 2 -0.2000 30.5034 23.6117  1.6253
242 34 3  0.1000 31.3508 25.6463  1.3272
243 34 3  0.1000 29.9662 25.6282  2.3661
244 35 2 -0.2000  5.3689 36.9809  4.4656
245 35 3  0.1000  4.5481 38.6640  3.1843
246 35 3  0.1000  6.1847 38.0205  2.9687
247 36 2 -0.2000 36.9874 24.2679 24.4689
248 36 3  0.1000 37.5845 22.5379 25.7648
249 36 3  0.1000 38.4310 22.8287 24.2814
250 37 2 -0.2000  3.0555  4.4392  6.7338
251 37 3  0.1000  2.3876  4.8095  8.7517
252 37 3  0.1000  4.1126  4.6309  8.5376
253 20 2 -0.2000  6.3752 18.0270 15.2145
254 20 3  0.1000  8.4063 17.5972 14.3464
255 20 3  0.1000  7.2655 16.3279 14.0879
256 21 2 -0.2000 17.0950 34.3346 37.6480
257 21 3  0.1000 16.0290 32.5176 36.9409
258 21 3  0.1000 15.0621 33.7098 37.2488
259 22 2 -0.2000 17.6424 26.2193 22.7390
260 22 3  0.1000 16.1747 26.9985 21.1618
261 22 3  0.1000 15.9190 27.5110 22.8740
262 23 2 -0.2000 12.1375 25.2146  0.7084
263 23 3  0.1000 11.6745 27.0900  1.6075
264 23 3  0.1000 12.4527 25.9544  2.5916
265 24 2 -0.2000 34.9256  4.2200 16.0867
266 24 3  0.1000 34.0098  5.4005 14.4230
267 24 3  0.1000 35.8400  5.3130 14.4758
268 25 2 -0.2000 22.0037  5.0822 15.6183
269 25 3  0.1000 21.7082  3.3271 17.3851
270 25 3  0.1000 20.5357  4.4893 17.0201
271 26 2 -0.2000 22.5004 35.8510  5.1707
272 26 3  0.1000 20.9078 35.5123  6.6542
273 26 3  0.1000 21.7142 37.2248  6.7122
274 27 2 -0.2000  7.5855  4.2854 28.5234
275 27 3  0.1000  8.4019  6.2433 28.5386
276 27 3  0.1000  6.8152  6.2769 29.0919
277 28 2 -0.2000  5.4962 16.7053  5.4167
278 28 3  0.1000  3.3376 16.4422  5.8740
279 28 3  0.1000  4.3384 16.9681  7.2013
280 29 2 -0.2000  6.1606 31.2022 24.6018
281 29 3  0.1000  5.9740 33.1635 23.3095
282 29 3  0.1000  4.6983 31.9645 23.2309
283 30 2 -0.2000  8.4391 13.5137 36.3516
284 30 3  0.1000  7.7638 12.6095 34.4005
285 30 3  0.1000  7.5742 14.3617 34.6492
286 31 2 -0.2000 28.1468 15.4579 34.4097
287 31 3  0.1000 28.5696 14.9022 36.4250
288 31 3  0.1000 28.1598 16.6098 36.1464
289 32 2 -0.2000 18.5854 28.2245 11.3864
290 32 3  0.1000 18.5242 30.2296 10.4022
291 32 3  0.1000 17.7064 28.9644  9.5538
292 33 2 -0.2000 19.0792  2.6266 28.7944
293 33 3  0.1000 20.6352  4.1049 28.6853
294 33 3  0.1000 19.3902  4.2544 30.0468
295 34 2 -0.2000 30.1772 23.3505  0.1878
296 34 3  0.1000 29.7076 23.2513  2.2827
297 34 3  0.1000 31.3412 23.0360  1.8412
298 35 2 -0.2000  6.1452 37.8787  5.4168
299 35 3  0.1000  5.7816 36.0683  4.2892
300 35 3  0.1000  4.3292 36.6908  4.9337
301 36 2 -0.2000 36.0980 23.1656 23.7604
302 36 3  0.1000 37.4038 25.0164 23.8231
303 36 3  0.1000 36.4048 24.8128 25.2388
304 37 2 -0.2000  4.1357  4.4316  5.6537
305 37 3  0.1000  2.1177  4.6952  6.1802
306 37 3  0.1000  2.9205  3.3400  7.0149
307 20 2 -0.2000  6.9878 17.9217 16.6285
308 20 3  0.1000  5.3815 17.5375 15.1036
309 20 3  0.1000  6.1878 19.0398 15.0401
310 21 2 -0.2000 17.2446 33.8339 39.1031
311 21 3  0.1000 17.0573 35.4848 37.6062
312 21 3  0.1000 18.0449 34.1179 37.1799
313 22 2 -0.2000 16.8109 24.9632 22.8655
314 22 3  0.1000 18.0836 26.5000 23.6913
315 22 3  0.1000 18.4321 25.9635 22.0678
316 23 2 -0.2000 11.8779 24.0023  1.6820
317 23 3  0.1000 12.7311 25.0368 -0.1824
318 23 3  0.1000 11.1506 25.5524  0.2181
319 24 2 -0.2000 36.2657  3.8059 16.4556
320 24 3  0.1000 34.1721  3.5132 16.4005
321 24 3  0.1000 34.7695  5.1641 16.6429
322 25 2 -0.2000 22.7182  6.0209 16.5238
323 25 3  0.1000 21.2095  5.5442 14.9810
324 25 3  0.1000 22.7337  4.6385 15.0430
325 26 2 -0.2000 24.0103 35.9655  5.6580
326 26 3  0.1000 22.4019 36.0585  4.1001
327 26 3  0.1000 22.3052 34.8193  5.2760
328 27 2 -0.2000  7.5313  4.4064 26.9381
329 27 3  0.1000  6.6080  3.8178 28.9494
330 27 3  0.1000  8.3187  3.5550 28.8089
331 28 2 -0.2000  5.4276 15.2169  5.1942
332 28 3  0.1000  6.4116 16.9337  5.9194
333 28 3  0.1000  5.4680 17.2791  4.5305
334 29 2 -0.2000  7.4180 31.0579 23.6791
335 29 3  0.1000  5.5325 30.2263 24.9502
336 29 3  0.1000  6.4837 31.4796 25.6143
337 30 2 -0.2000  7.5256 12.3475 36.6569
338 30 3  0.1000  8.1876 14.4566 36.9076
339 30 3  0.1000  9.5108 13.3580 36.6282
340 31 2 -0.2000 27.0075 15.0562 33.5526
341 31 3  0.1000 29.0255 14.8759 34.3499
342 31 3  0.1000 28.4931 16.4857 33.9526
343 32 2 -0.2000 19.8196 27.6506 10.6413
344 32 3  0.1000 17.8991 27.5567 11.9391
345 32 3  0.1000 19.0930 28.6622 12.2310
346 33 2 -0.2000 18.4162  2.8978 27.5273
347 33 3  0.1000 18.3038  2.1566 29.5522
348 33 3  0.1000 19.6173  1.7494 28.6001
349 34 2 -0.2000 28.8283 23.8106 -0.1558
350 34 3  0.1000 30.3978 22.4644 -0.4586
351 34 3  0.1000 30.9065 24.0748 -0.3525
352 35 2 -0.2000  6.1848 39.4767  5.1086
353 35 3  0.1000  7.1261 37.4438  5.4658
354 35 3  0.1000  5.7111 37.7146  6.4962
355 36 2 -0.2000 34.5762 23.3622 24.1010
356 36 3  0.1000 36.3413 22.1300 23.9855
357 36 3  0.1000 36.3674 23.1115 22.6811
358 37 2 -0.2000  5.5627  4.1242  6.1913
359 37 3  0.1000  4.0237  5.3466  5.0096
360 37 3  0.1000  3.8226  3.6884  4.9900
361 20 2 -0.2000  6.3264 18.9075 17.5545
362 20 3  0.1000  8.1101 17.9026 16.5907
363 20 3  0.1000  6.7420 16.9612 17.0958
364 21 2 -0.2000 16.8391 34.7833 40.2182
365 21 3  0.1000 18.2125 33.3390 39.3296
366 21 3  0.1000 16.5934 32.9735 39.1223
367 22 2 -0.2000 16.0809 24.7594 24.1604
368 22 3  0.1000 17.3165 24.0776 22.5860
369 22 3  0.1000 16.0290 25.0769 22.0220
370 23 2 -0.2000 10.7022 23.9714  2.6550
371 23 3  0.1000 12.9071 23.5172  2.1152
372 23 3  0.1000 11.5717 23.1767  1.0350
373 24 2 -0.2000 36.3442  3.5003 17.9413
374 24 3  0.1000 36.8924  4.6704 16.0533
375 24 3  0.1000 36.4631  2.9565 15.9210
376 25 2 -0.2000 22.8087  7.2384 15.5806
377 25 3  0.1000 23.5910  5.7084 16.9554
378 25 3  0.1000 22.0623  6.2163 17.4317
379 26 2 -0.2000 25.1594 35.3229  4.8615
380 26 3  0.1000 24.1609 35.9636  6.7018
381 26 3  0.1000 24.3002 37.0743  5.3814
382 27 2 -0.2000  6.4353  5.3218 26.4481
383 27 3  0.1000  7.5885  3.3907 26.3742
384 27 3  0.1000  8.4836  4.8476 26.6119
385 28 2 -0.2000  4.4045 14.6966  4.1327
386 28 3  0.1000  5.4628 14.7348  6.2451
387 28 3  0.1000  6.3135 14.7892  4.8236
388 29 2 -0.2000  7.1645 31.1362 22.1450
389 29 3  0.1000  8.1099 30.2808 24.2073
390 29 3  0.1000  7.9288 31.9796 23.8725
391 30 2 -0.2000  7.5911 12.2721 38.2777
392 30 3  0.1000  8.0300 11.4832 36.2771
393 30 3  0.1000  6.4442 12.4255 36.2567
394 31 2 -0.2000 27.0592 15.2978 32.0072
395 31 3  0.1000 26.0634 15.3401 33.9716
396 31 3  0.1000 26.9149 13.9980 33.6859
397 32 2 -0.2000 19.6846 26.1698 10.9609
398 32 3  0.1000 20.7232 28.1150 11.0305
399 32 3  0.1000 19.8865 27.9264  9.5756
400 33 2 -0.2000 19.3445  3.5854 26.6306
401 33 3  0.1000 17.5426  3.5498 27.6263
402 33 3  0.1000 18.0830  2.0157 27.0965
403 34 2 -0.2000 27.7626 23.3490  0.7812
404 34 3  0.1000 28.5459 23.6288 -1.2135
405 34 3  0.1000 28.9213 24.9499 -0.0210
406 35 2 -0.2000  7.5126 40.0633  5.3592
407 35 3  0.1000  5.4398 40.1057  5.5939
408 35 3  0.1000  6.1038 39.6093  3.9718
409 36 2 -0.2000 34.1801 24.6912 23.3842
410 36 3  0.1000 34.3428 23.4560 25.1324
411 36 3  0.1000 34.0472 22.5401 23.6615
412 37 2 -0.2000  6.4945  3.7664  4.9771
413 37 3  0.1000  5.5113  3.3391  6.9699
414 37 3  0.1000  6.0005  5.0546  6.6577
415 20 3  0.1000  5.4908 18.6331 18.2409
416 20 3  0.1000  5.8426 19.6761 16.8829
417 20 2 -0.2000  7.4235 19.6701 18.3531
418 21 3  0.1000 17.6238 35.0907 41.0110
419 21 3  0.1000 16.1178 34.1903 40.7363
420 21 2 -0.2000 16.1049 36.0949 39.9863
421 22 3  0.1000 15.0290 25.0108 24.3072
422 22 3  0.1000 16.5663 25.4769 24.8643
423 22 2 -0.2000 16.4015 23.3503 24.6050
424 23 3  0.1000  9.8015 23.9307  2.0853
425 23 3  0.1000 10.5013 25.0017  3.2176
426 23 2 -0.2000 10.8401 22.7341  3.5576
427 24 3  0.1000 35.3286  3.3313 18.4103
428 24 3  0.1000 36.7212  4.4307 18.4058
429 24 2 -0.2000 37.3527  2.3349 18.1838
430 25 3  0.1000 23.6219  7.1290 14.8330
431 25 3  0.1000 23.1823  7.9644 16.3325
432 25 2 -0.2000 21.6853  7.9561 14.8558
433 26 3  0.1000 25.1925 34.2520  5.1199
434 26 3  0.1000 26.1589 35.5877  5.4157
435 26 2 -0.2000 25.3600 36.0460  3.5989
436 27 3  0.1000  6.8708  6.0103 25.6677
437 27 3  0.1000  6.3078  5.9533 27.3772
438 27 2 -0.2000  5.0922  4.7461 26.1419
439 28 3  0.1000  4.6224 14.7530  3.1265
440 28 3  0.1000  3.5132 15.2052  4.3220
441 28 2 -0.2000  4.0549 13.3144  4.5403
442 29 3  0.1000  8.1132 31.3362 21.5497
443 29 3  0.1000  6.5474 31.9637 22.0196
444 29 2 -0.2000  6.6136 29.8896 21.5090
445 30 3  0.1000  7.6236 11.2102 38.6529
446 30 3  0.1000  6.6031 12.6565 38.7049
447 30 2 -0.2000  8.7718 12.9641 39.0554
448 31 3  0.1000 26.4773 14.5184 31.2521
449 31 3  0.1000 28.1940 15.0867 31.6992
450 31 2 -0.2000 26.9142 16.7453 31.7776
451 32 3  0.1000 18.7766 25.7375 10.5475
452 32 3  0.1000 19.5201 25.8861 11.9423
453 32 2 -0.2000 20.8547 25.3989 10.3475
454 33 3  0.1000 19.5160  4.6653 26.8170
455 33 3  0.1000 18.7429  3.5697 25.6883
456 33 2 -0.2000 20.5698  2.9822 26.1579
457 34 3  0.1000 27.6989 23.9831  1.6743
458 34 3  0.1000 28.1530 22.3691  1.2301
459 34 2 -0.2000 26.3823 22.9583  0.2826
460 35 3  0.1000  7.5948 40.9064  4.5753
461 35 3  0.1000  8.2077 39.3091  4.9892
462 35 2 -0.2000  7.9344 40.6540  6.7244
463 36 3  0.1000 34.2181 24.6772 22.2903
464 36 3  0.1000 34.7455 25.5763 23.7672
465 36 2 -0.2000 32.8029 24.9867 23.8693
466 37 3  0.1000  5.8142  3.5387  4.1141
467 37 3  0.1000  6.9691  2.7381  5.1377
468 37 2 -0.2000  7.7148  4.7466  4.8110
469 20 2 -0.2000  6.9091 19.9549 19.7662
470 20 3  0.1000  7.9658 20.3867 17.6642
471 20 3  0.1000  8.2261 18.8160 18.5110
472 21 2 -0.2000 16.9990 37.2297 39.2989
473 21 3  0.1000 15.6627 36.5750 40.8857
474 21 3  0.1000 15.2810 35.9281 39.3140
475 22 2 -0.2000 15.8771 22.8161 25.8771
476 22 3  0.1000 17.4128 22.8903 24.4805
477 22 3  0.1000 15.8825 22.7448 24.0002
478 23 2 -0.2000 10.0595 23.2888  4.8162
479 23 3  0.1000 11.8902 22.4336  3.9889
480 23 3  0.1000 10.3362 21.7849  3.1416
481 24 2 -0.2000 37.0708  1.5694 19.5332
482 24 3  0.1000 38.4121  2.5852 18.0480
483 24 3  0.1000 37.1466  1.6537 17.3137
484 25 2 -0.2000 22.3776  9.3270 14.6798
485 25 3  0.1000 20.7372  8.0254 15.3871
486 25 3  0.1000 21.5722  7.5505 13.9110
487 26 2 -0.2000 25.5069 34.9399  2.5786
488 26 3  0.1000 26.1078 36.7644  3.5334
489 26 3  0.1000 24.5181 36.6504  3.3880
490 27 2 -0.2000  3.9720  5.7245 25.5693
491 27 3  0.1000  4.6762  4.1617 26.9091
492 27 3  0.1000  5.1688  3.9540 25.4347
493 28 2 -0.2000  4.9768 12.2776  3.8725
494 28 3  0.1000  2.9886 12.9617  4.3083
495 28 3  0.1000  4.0895 13.2548  5.6635
496 29 2 -0.2000  7.3164 29.5321 20.1457
497 29 3  0.1000  5.5231 29.8647 21.3282
498 29 3  0.1000  6.6459 29.0027 22.1501
499 30 2 -0.2000  8.3513 13.5557 40.4015
500 30 3  0.1000  9.4153 13.5705 38.4380
501 30 3  0.1000  9.4525 12.1409 39.3525
502 31 2 -0.2000 27.8918 17.0714 30.6543
503 31 3  0.1000 26.9772 17.3200 32.7341
504 31 3  0.1000 25.9501 16.9428 31.3664
505 32 2 -0.2000 22.0201 25.1272 11.2501
506 32 3  0.1000 20.9866 25.8244  9.3444
507 32 3  0.1000 20.4508 24.4092 10.0853
508 33 2 -0.2000 21.8177  3.8700 25.8807
509 33 3  0.1000 20.3472  2.3896 25.1616
510 33 3  0.1000 20.9060  2.2252 26.8842
511 34 2 -0.2000 25.5972 24.2501 -0.0454
512 34 3  0.1000 25.8324 22.3704  1.0108
513 34 3  0.1000 26.4714 22.3240 -0.5762
514 35 2 -0.2000  6.9362 40.4137  7.8030
515 35 3  0.1000  8.3937 41.5928  6.5017
516 35 3  0.1000  8.8077 40.0390  7.0742
517 36 2 -0.2000 31.6919 24.8014 22.7435
518 36 3  0.1000 32.7996 26.0693 24.1167
519 36 3  0.1000 32.6337 24.3227 24.7462
520 37 2 -0.2000  8.5961  4.3718  3.5950
521 37 3  0.1000  8.2153  4.9872  5.7346
522 37 3  0.1000  7.2836  5.7623  4.4556
523 20 2 -0.2000  6.2504 18.7991 20.4433
524 20 3  0.1000  6.3018 20.9098 19.7867
525 20 3  0.1000  7.8779 20.3130 20.2549
526 21 2 -0.2000 16.5157 38.6076 39.8611
527 21 3  0.1000 16.9600 37.3410 38.1247
528 21 3  0.1000 18.0230 37.0375 39.4810
529 22 2 -0.2000 16.7809 23.2418 27.0743
530 22 3  0.1000 15.6015 21.6817 25.7387
531 22 3  0.1000 14.9397 23.3180 25.9709
532 23 2 -0.2000  9.5633 22.1768  5.8589
533 23 3  0.1000  9.3551 23.9819  4.4339
534 23 3  0.1000 10.7532 23.8579  5.4248
535 24 2 -0.2000 37.3553  0.0829 19.4063
536 24 3  0.1000 36.3867  2.0865 20.2127
537 24 3  0.1000 38.0173  1.8628 20.0678
538 25 2 -0.2000 21.4654 10.3360 13.9422
539 25 3  0.1000 23.3714  9.3187 14.1036
540 25 3  0.1000 22.5547  9.8933 15.6093
541 26 2 -0.2000 26.4085 35.1699  1.3887
542 26 3  0.1000 24.6144 34.4928  2.2319
543 26 3  0.1000 25.9829 34.1661  3.1877
544 27 2 -0.2000  2.9842  4.8598 24.8182
545 27 3  0.1000  4.4891  6.6217 25.0588
546 27 3  0.1000  3.4068  6.1899 26.4399
547 28 2 -0.2000  4.4602 10.7755  4.0607
548 28 3  0.1000  5.9059 12.5246  4.2856
549 28 3  0.1000  5.1791 12.4308  2.7648
550 29 2 -0.2000  6.8481 28.0299 19.9286
551 29 3  0.1000  8.4523 29.6329 20.1602
552 29 3  0.1000  6.9221 30.2267 19.3800
553 30 2 -0.2000  9.5089 13.8166 41.4049
554 30 3  0.1000  7.4728 13.0043 40.8105
555 30 3  0.1000  8.0080 14.6002 40.2495
556 31 2 -0.2000 27.3164 18.1670 29.6758
557 31 3  0.1000 28.2602 16.2379 30.1515
558 31 3  0.1000 28.6913 17.5452 31.2122
559 32 2 -0.2000 22.2115 25.9987 12.5147
560 32 3  0.1000 23.0599 24.9462 10.7864
561 32 3  0.1000 21.8132 24.0705 11.6781
562 33 2 -0.2000 23.1039  3.7540 26.6722
563 33 3  0.1000 21.5784  4.9888 25.8286
564 33 3  0.1000 22.1258  3.6084 24.8367
565 34 2 -0.2000 24.1946 24.1629  0.5372
566 34 3  0.1000 25.7205 24.6955 -1.1246
567 34 3  0.1000 25.9776 25.0326  0.6090
568 35 2 -0.2000  7.5045 41.1603  9.1038
569 35 3  0.1000  6.4270 39.4736  7.9125
570 35 3  0.1000  6.0837 41.0619  7.5370
571 36 2 -0.2000 30.4902 25.7405 23.1938
572 36 3  0.1000 31.4045 23.8907 22.2373
573 36 3  0.1000 32.1821 25.3062 21.9255
574 37 2 -0.2000 10.0410  5.0209  3.6484
575 37 3  0.1000  8.1686  4.5095  2.5480
576 37 3  0.1000  8.7219  3.3236  3.6913
577 20 2 -0.2000  4.8988 19.2273 21.1098
578 20 3  0.1000  6.8441 18.3681 21.2716
579 20 3  0.1000  6.1649 17.9620 19.7320
580 21 2 -0.2000 17.6966 38.8385 40.8372
581 21 3  0.1000 15.5495 38.6295 40.2826
582 21 3  0.1000 16.3970 39.2955 38.9370
583 22 2 -0.2000 17.4399 21.9335 27.6032
584 22 3  0.1000 16.3528 23.7197 27.8842
585 22 3  0.1000 17.5836 23.8652 26.6822
586 23 2 -0.2000 10.2997 22.2340  7.1393
587 23 3  0.1000  9.7737 21.1234  5.3980
588 23 3  0.1000  8.4218 22.2455  6.1452
589 24 2 -0.2000 36.0758 -0.5921 18.9810
590 24 3  0.1000 37.9055 -0.4565 20.2362
591 24 3  0.1000 38.0332 -0.0566 18.5849
592 25 2 -0.2000 20.5251  9.7809 12.9657
593 25 3  0.1000 22.1415 10.9441 13.5158
594 25 3  0.1000 20.8739 11.0148 14.5245
595 26 2 -0.2000 25.4969 35.9847  0.5484
596 26 3  0.1000 26.8469 34.2218  1.0669
597 26 3  0.1000 27.3313 35.6847  1.8211
598 27 2 -0.2000  2.2629  3.9761 25.7629
599 27 3  0.1000  3.4360  4.2687 23.9401
600 27 3  0.1000  2.2046  5.5563 24.4676
601 28 2 -0.2000  3.2554 10.4383  3.2003
602 28 3  0.1000  4.3620 10.4206  5.1537
603 28 3  0.1000  5.1929 10.0808  3.6656
604 29 2 -0.2000  6.8449 27.3736 18.6118
605 29 3  0.1000  5.8747 27.7706 20.3402
606 29 3  0.1000  7.5764 27.3656 20.5079
607 30 2 -0.2000  9.5002 12.9994 42.6820
608 30 3  0.1000  9.8566 14.8560 41.6445
609 30 3  0.1000 10.2747 13.3790 40.8935
610 31 2 -0.2000 28.2964 18.8883 28.6987
611 31 3  0.1000 26.6822 18.8707 30.1541
612 31 3  0.1000 26.6605 17.6354 29.0150
613 32 2 -0.2000 22.0343 25.5338 13.9411
614 32 3  0.1000 21.6179 26.9754 12.2684
615 32 3  0.1000 23.2614 26.2675 12.5108
616 33 2 -0.2000 24.1012  4.6591 26.2229
617 33 3  0.1000 23.4321  2.7441 26.9505
618 33 3  0.1000 22.9189  4.0870 27.6596
619 34 2 -0.2000 23.3665 23.9980 -0.7105
620 34 3  0.1000 23.7783 24.9345  1.1927
621 34 3  0.1000 24.1239 23.2329  1.1758
622 35 2 -0.2000  8.1424 40.4242 10.3094
623 35 3  0.1000  6.7076 41.8950  9.3370
624 35 3  0.1000  8.3362 41.8157  8.6992
625 36 2 -0.2000 29.3304 26.0801 22.3187
626 36 3  0.1000 30.7180 26.7327 23.6646
627 36 3  0.1000 30.0487 25.1489 23.9613
628 37 2 -0.2000 11.0353  4.3044  4.5233
629 37 3  0.1000  9.8555  6.1570  3.7983
630 37 3  0.1000 10.4203  4.9317  2.6028
631 20 2 -0.2000  3.8881 19.8847 20.1898
632 20 3  0.1000  5.2626 19.7538 22.0792
633 20 3  0.1000  4.3425 18.2733 21.4644
634 21 2 -0.2000 17.9899 40.2415 41.3800
635 21 3  0.1000 18.5550 38.2665 40.7471
636 21 3  0.1000 17.3061 38.4917 41.7983
637 22 2 -0.2000 17.6137 21.7551 29.1028
638 22 3  0.1000 18.4425 21.7234 27.0932
639 22 3  0.1000 16.8532 21.0527 27.2329
640 23 2 -0.2000  9.9024 20.9880  7.8401
641 23 3  0.1000 10.2240 23.2448  7.5753
642 23 3  0.1000 11.4783 22.1695  6.7556
643 24 2 -0.2000 36.1606 -2.0019 19.4167
644 24 3  0.1000 35.7272 -0.4765 17.9451
645 24 3  0.1000 35.2892 -0.0264 19.6139
646 25 2 -0.2000 21.3567  9.0771 11.9236
647 25 3  0.1000 19.8273 10.4935 12.4236
648 25 3  0.1000 19.8771  9.0344 13.4218
649 26 2 -0.2000 26.1079 37.3537  0.2269
650 26 3  0.1000 24.4640 36.0680  0.9070
651 26 3  0.1000 25.3371 35.4357 -0.4065
652 27 2 -0.2000  0.9584  4.4631 26.2969
653 27 3  0.1000  2.9903  3.7521 26.5849
654 27 3  0.1000  2.0011  3.0226 25.2505
655 28 2 -0.2000  2.1692  9.8797  4.1506
656 28 3  0.1000  3.6265  9.6572  2.4045
657 28 3  0.1000  2.8831 11.2681  2.6313
658 29 2 -0.2000  6.6755 28.3029 17.3701
659 29 3  0.1000  6.2852 26.4304 18.5712
660 29 3  0.1000  7.8480 26.9983 18.4490
661 30 2 -0.2000 10.4181 13.5907 43.7964
662 30 3  0.1000  9.9539 11.9507 42.7460
663 30 3  0.1000  8.4676 13.0036 43.1218
664 31 2 -0.2000 29.3595 18.0129 28.1800
665 31 3  0.1000 28.8076 19.7954 28.9704
666 31 3  0.1000 27.7647 19.3058 27.9288
667 32 2 -0.2000 22.7095 26.3050 14.9952
668 32 3  0.1000 22.4671 24.4994 13.9181
669 32 3  0.1000 20.8958 25.4551 14.1493
670 33 2 -0.2000 25.0356  4.9066 27.4268
671 33 3  0.1000 23.8161  5.5401 25.5466
672 33 3  0.1000 24.7663  4.0003 25.6031
673 34 2 -0.2000 21.9582 23.5323 -0.3059
674 34 3  0.1000 23.9578 23.3502 -1.3698
675 34 3  0.1000 23.2790 24.9635 -1.2058
676 35 2 -0.2000  9.1697 39.3584 10.0762
677 35 3  0.1000  7.3804 40.1595 10.9924
678 35 3  0.1000  8.6916 41.2132 10.8433
679 36 2 -0.2000 29.4289 25.8764 20.8686
680 36 3  0.1000 29.0631 27.1926 22.4982
681 36 3  0.1000 28.4056 25.6059 22.6449
682 37 2 -0.2000 12.4666  4.9056  4.3014
683 37 3  0.1000 11.0474  3.2070  4.2910
684 37 3  0.1000 10.7308  4.3947  5.6749
685 20 2 -0.2000  3.2534 21.0997 20.9776
686 20 3  0.1000  3.1319 19.1411 19.9780
687 20 3  0.1000  4.3842 20.2241 19.2385
688 21 2 -0.2000 18.3908 41.2561 40.2834
689 21 3  0.1000 18.5001 40.2250 42.3719
690 21 3  0.1000 17.0017 40.6166 41.7781
691 22 2 -0.2000 17.9367 23.0136 29.8004
692 22 3  0.1000 18.1622 20.9187 29.4403
693 22 3  0.1000 16.5949 21.5360 29.4388
694 23 2 -0.2000 10.6566 20.4528  9.1097
695 23 3  0.1000  9.9003 20.1099  7.1096
696 23 3  0.1000  8.8575 21.0992  8.2126
697 24 2 -0.2000 36.3296 -2.0843 20.9337
698 24 3  0.1000 36.9233 -2.6271 18.9595
699 24 3  0.1000 35.1535 -2.4062 19.1654
700 25 2 -0.2000 20.7371  9.4330 10.6459
701 25 3  0.1000 21.4559  7.9946 12.0836
702 25 3  0.1000 22.4275  9.5015 11.9955
703 26 2 -0.2000 27.2304 36.8997 -0.8074
704 26 3  0.1000 26.4414 38.1055  1.0080
705 26 3  0.1000 25.3251 37.9926 -0.3319
706 27 2 -0.2000 -0.0653  4.9895 25.3417
707 27 3  0.1000  1.0006  5.0471 27.2785
708 27 3  0.1000  0.5041  3.5033 26.6119
709 28 2 -0.2000  1.8795  8.4726  3.6787
710 28 3  0.1000  1.2371 10.5762  4.2123
711 28 3  0.1000  2.5340  9.8171  5.1609
712 29 2 -0.2000  5.4619 29.1321 17.1533
713 29 3  0.1000  6.9411 27.9143 16.3510