LAMMPS DATA FILE

4032 atoms 
 4014 bonds 
 7992 angles 
 11826 dihedrals 
 0 impropers 

 3 atom types 
 4 bond types 
 7 angle types 
 8 dihedral types 
 0 improper types 

0.00000  40.0000  xlo xhi
0.00000  40.0000  ylo yhi
0.00000  40.0000  zlo zhi

Masses

1  12.01115 
2  12.01115 
3  1.00797 

Pair Coeffs

1  0.038999995200   3.875409
2  0.038999995200   3.875409
3  0.038000001100   2.449971

Bond Coeffs

1 322.715800 1.526000 
2 340.617500 1.105000 
3 322.715800 1.526000 
4 340.617500 1.105000 

Angle Coeffs

1 46.600000 110.500000 
2 46.600000 110.500000 
3 44.400000 110.000000 
4 39.500000 106.400000 
5 44.400000 110.000000 
6 44.400000 110.000000 
7 39.500000 106.400000 

Dihedral Coeffs

1 0.158100 1 3 
2 0.158100 1 3 
3 0.158100 1 3 
4 0.158100 1 3 
5 0.158100 1 3 
6 0.158100 1 3 
7 0.158100 1 3 
8 0.158100 1 3 

Atoms

1 20 1 -0.3000 24.4052 15.6395 20.1621
2 20 2 -0.2000 23.6249 15.2425 18.9593
3 20 3  0.1000 25.3313 15.1425 20.2853
4 20 3  0.1000 23.7824 15.3836 21.0550
5 20 3  0.1000 24.4699 16.7485 20.4846
6 20 2 -0.2000 22.2051 15.7712 19.1065
7 20 3  0.1000 23.6195 14.1380 18.7473
8 20 3  0.1000 24.0189 15.6778 18.0178
9 20 2 -0.2000 21.9560 17.2200 18.7500
10 20 3  0.1000 21.6292 15.4425 19.9567
11 20 3  0.1000 21.6321 15.2264 18.3488
12 21 1 -0.3000 18.5343  4.6425 38.4581
13 21 2 -0.2000 17.5330  5.5474 39.0412
14 21 3  0.1000 18.0445  3.7597 37.8959
15 21 3  0.1000 19.1575  4.2249 39.2165
16 21 3  0.1000 19.1141  5.2270 37.6711
17 21 2 -0.2000 17.1194  5.2344 40.4369
18 21 3  0.1000 16.7146  5.8497 38.4347
19 21 3  0.1000 18.0936  6.4678 39.2074
20 21 2 -0.2000 17.4708  6.3988 41.4319
21 21 3  0.1000 17.4830  4.2596 40.7401
22 21 3  0.1000 16.0132  5.2122 40.5518
23 22 1 -0.3000  5.6106 16.2347 36.6661
24 22 2 -0.2000  4.7539 15.8577 37.8818
25 22 3  0.1000  6.6864 16.3758 36.9233
26 22 3  0.1000  5.2579 17.1638 36.1976
27 22 3  0.1000  5.6266 15.5111 35.9485
28 22 2 -0.2000  5.6079 14.7897 38.7595
29 22 3  0.1000  3.7418 15.5399 37.6296
30 22 3  0.1000  4.8420 16.7137 38.5065
31 22 2 -0.2000  4.9430 13.4177 38.4747
32 22 3  0.1000  5.7364 14.9790 39.7954
33 22 3  0.1000  6.6339 14.8086 38.3467
34 23 1 -0.3000 31.5519 27.0173 38.8671
35 23 2 -0.2000 30.8612 25.5927 38.7234
36 23 3  0.1000 31.6644 27.4311 40.0152
37 23 3  0.1000 30.9418 27.8631 38.4842
38 23 3  0.1000 32.5850 26.9444 38.3802
39 23 2 -0.2000 30.3449 24.8997 39.9786
40 23 3  0.1000 31.3578 24.8233 38.0771
41 23 3  0.1000 29.9625 25.6754 38.1520
42 23 2 -0.2000 29.0920 24.1867 39.8712
43 23 3  0.1000 30.1367 25.5735 40.9103
44 23 3  0.1000 31.1246 24.1863 40.3110
45 24 1 -0.3000 17.6457  0.5613 37.6471
46 24 2 -0.2000 16.8589 -0.5719 36.9448
47 24 3  0.1000 18.7284  0.2998 37.9883
48 24 3  0.1000 17.2471  0.9574 38.5831
49 24 3  0.1000 17.7616  1.3752 36.9341
50 24 2 -0.2000 16.7213 -0.0916 35.4819
51 24 3  0.1000 15.9085 -0.7624 37.4098
52 24 3  0.1000 17.4479 -1.5466 36.8815
53 24 2 -0.2000 16.3015 -1.2677 34.7086
54 24 3  0.1000 17.4952  0.5917 34.9424
55 24 3  0.1000 15.8326  0.5955 35.5478
56 25 1 -0.3000 29.3843 27.1354 13.5699
57 25 2 -0.2000 28.4352 26.3707 14.5267
58 25 3  0.1000 29.5356 28.2501 13.8386
59 25 3  0.1000 28.9854 26.8885 12.6284
60 25 3  0.1000 30.3544 26.6724 13.6684
61 25 2 -0.2000 27.9853 27.3307 15.6647
62 25 3  0.1000 28.9822 25.5285 14.9759
63 25 3  0.1000 27.6031 25.9546 13.9116
64 25 2 -0.2000 28.6042 26.9678 17.0069
65 25 3  0.1000 26.8904 27.5735 15.6842
66 25 3  0.1000 28.4065 28.3147 15.4065
67 26 1 -0.3000 32.9065  6.1714 16.1936
68 26 2 -0.2000 31.7616  7.1782 16.3852
69 26 3  0.1000 33.9305  6.7516 16.2166
70 26 3  0.1000 32.7192  5.5707 15.2453
71 26 3  0.1000 32.9081  5.3378 16.9927
72 26 2 -0.2000 32.1601  8.5898 15.9985
73 26 3  0.1000 31.2313  6.9792 17.2596
74 26 3  0.1000 30.9659  6.8714 15.5686
75 26 2 -0.2000 31.9685  9.4760 17.2800
76 26 3  0.1000 31.5693  8.8230 14.9949
77 26 3  0.1000 33.2135  8.6020 15.7324
78 27 1 -0.3000  9.9133  3.3674 32.4463
79 27 2 -0.2000 10.0294  4.8143 32.1403
80 27 3  0.1000  9.2609  3.2362 33.2819
81 27 3  0.1000 10.9049  2.8377 32.6231
82 27 3  0.1000  9.4037  2.9104 31.5968
83 27 2 -0.2000 11.2553  5.0644 31.3103
84 27 3  0.1000  9.8536  5.5762 32.8897
85 27 3  0.1000  9.1757  5.0069 31.4025
86 27 2 -0.2000 11.4967  6.5041 31.5779
87 27 3  0.1000 11.2486  4.7257 30.2536
88 27 3  0.1000 12.0416  4.4408 31.7773
89 28 1 -0.3000  6.1953 20.8037  7.8092
90 28 2 -0.2000  5.3630 21.6784  6.9200
91 28 3  0.1000  5.5757 20.3802  8.5999
92 28 3  0.1000  7.1795 21.1941  8.0760
93 28 3  0.1000  6.5412 19.9724  7.0806
94 28 2 -0.2000  4.7146 22.7842  7.6107
95 28 3  0.1000  4.6459 20.9815  6.4022
96 28 3  0.1000  5.9778 22.1768  6.1609
97 28 2 -0.2000  3.8610 23.6598  6.6154
98 28 3  0.1000  5.4265 23.4096  8.0809
99 28 3  0.1000  4.1526 22.3105  8.4068
100 29 1 -0.3000 39.4752 33.8598  3.5706
101 29 2 -0.2000 40.1058 32.5591  3.8746
102 29 3  0.1000 40.2074 34.7030  3.7991
103 29 3  0.1000 38.4355 34.1465  3.8434
104 29 3  0.1000 39.4615 33.9296  2.5102
105 29 2 -0.2000 40.2685 32.1751  5.3092
106 29 3  0.1000 40.8502 32.3148  3.1917
107 29 3  0.1000 39.3227 31.8242  3.5960
108 29 2 -0.2000 39.0140 32.1064  6.2937
109 29 3  0.1000 41.0353 32.8124  5.8588
110 29 3  0.1000 40.7422 31.0929  5.2317
111 30 1 -0.3000 11.6015 13.1483  1.9943
112 30 2 -0.2000 12.9760 12.5317  1.7561
113 30 3  0.1000 11.1205 13.4452  0.9768
114 30 3  0.1000 11.6849 13.9686  2.7103
115 30 3  0.1000 11.0071 12.3758  2.5864
116 30 2 -0.2000 13.5702 13.7223  1.1086
117 30 3  0.1000 13.0371 11.6048  1.1197
118 30 3  0.1000 13.4575 12.3497  2.7711
119 30 2 -0.2000 14.5916 14.2871  1.9178
120 30 3  0.1000 12.8181 14.3308  0.6357
121 30 3  0.1000 14.0957 13.2876  0.2386
122 31 1 -0.3000 31.6936  0.7525 30.5229
123 31 2 -0.2000 31.2098  0.7593 31.9972
124 31 3  0.1000 32.5678  0.0938 30.3299
125 31 3  0.1000 32.0624  1.7348 30.0705
126 31 3  0.1000 30.7802  0.5186 29.9207
127 31 2 -0.2000 32.3743  1.2881 32.8804
128 31 3  0.1000 30.6147 -0.0844 32.4115
129 31 3  0.1000 30.5138  1.5173 32.1135
130 31 2 -0.2000 32.3684  0.9051 34.3302
131 31 3  0.1000 32.5188  2.4666 32.8233
132 31 3  0.1000 33.2943  0.8726 32.4240
133 32 1 -0.3000 23.5185 32.7612 11.9356
134 32 2 -0.2000 24.1526 33.9297 11.1523
135 32 3  0.1000 23.4441 33.1478 12.9451
136 32 3  0.1000 24.0055 31.6900 11.8835
137 32 3  0.1000 22.6169 32.6351 11.4631
138 32 2 -0.2000 25.1841 34.5976 12.0422
139 32 3  0.1000 23.4652 34.5653 10.6783
140 32 3  0.1000 24.5867 33.3189 10.2749
141 32 2 -0.2000 26.3504 35.2825 11.2966
142 32 3  0.1000 25.4719 33.9428 12.8828
143 32 3  0.1000 24.5468 35.4165 12.5945
144 33 1 -0.3000 12.8620  6.1081  1.6090
145 33 2 -0.2000 13.7688  6.5978  2.7164
146 33 3  0.1000 13.4191  6.0548  0.6318
147 33 3  0.1000 11.9034  6.6055  1.4595
148 33 3  0.1000 12.5934  4.9941  1.9402
149 33 2 -0.2000 13.0701  7.3321  3.7650
150 33 3  0.1000 14.7174  7.0038  2.3055
151 33 3  0.1000 14.2059  5.6503  3.2112
152 33 2 -0.2000 14.3302  7.6725  4.6802
153 33 3  0.1000 12.3264  6.5497  4.1949
154 33 3  0.1000 12.5172  8.1230  3.4323
155 34 1 -0.3000  7.2548 13.5391 18.3862
156 34 2 -0.2000  6.0766 12.9998 19.1683
157 34 3  0.1000  8.0271 12.6708 18.1797
158 34 3  0.1000  7.7967 14.3169 18.9476
159 34 3  0.1000  6.9396 13.9478 17.4412
160 34 2 -0.2000  6.4045 13.1630 20.5680
161 34 3  0.1000  6.0568 11.9286 18.8593
162 34 3  0.1000  5.0816 13.5036 18.7508
163 34 2 -0.2000  6.4725 11.9125 21.4356
164 34 3  0.1000  5.8242 13.9712 21.1306
165 34 3  0.1000  7.4123 13.5092 20.6791
166 35 1 -0.3000 22.5146 17.3715  3.4948
167 35 2 -0.2000 22.7046 17.2386  1.9511
168 35 3  0.1000 23.4489 17.2701  4.0907
169 35 3  0.1000 21.8630 16.5786  3.9744
170 35 3  0.1000 21.9124 18.2960  3.7374
171 35 2 -0.2000 21.3990 17.5496  1.1957
172 35 3  0.1000 23.1672 16.2679  1.6367
173 35 3  0.1000 23.4150 17.9718  1.6384
174 35 2 -0.2000 21.5680 18.7413  0.3493
175 35 3  0.1000 20.6342 17.5809  2.0244
176 35 3  0.1000 21.0428 16.6865  0.5790
177 36 1 -0.3000  6.9306 32.6339 16.7954
178 36 2 -0.2000  6.0490 33.0775 15.7540
179 36 3  0.1000  7.9629 32.4768 16.5202
180 36 3  0.1000  6.5803 31.8642 17.5747
181 36 3  0.1000  7.0814 33.5237 17.4916
182 36 2 -0.2000  4.7675 33.8724 16.0832
183 36 3  0.1000  5.8647 32.2755 14.9663
184 36 3  0.1000  6.6914 33.7591 15.1442
185 36 2 -0.2000  3.5666 33.1209 15.5316
186 36 3  0.1000  4.9095 34.7936 15.5112
187 36 3  0.1000  4.7539 34.0167 17.2069
188 37 1 -0.3000  0.7857 26.3688 27.0930
189 37 2 -0.2000  2.1075 25.6280 26.8277
190 37 3  0.1000  0.9499 27.3923 26.9022
191 37 3  0.1000  0.2574 26.2025 28.0350
192 37 3  0.1000  0.1902 25.9356 26.3109
193 37 2 -0.2000  2.9651 25.6845 28.0383
194 37 3  0.1000  2.5252 25.8549 25.8832
195 37 3  0.1000  1.8747 24.5503 26.7004
196 37 2 -0.2000  3.5204 27.0801 27.8604
197 37 3  0.1000  3.5960 24.8511 28.1760
198 37 3  0.1000  2.2714 25.5929 28.9119
199 20 2 -0.2000 21.2198 17.3715 17.3981
200 20 3  0.1000 22.8272 17.8142 18.8401
201 20 3  0.1000 21.2997 17.5687 19.5753
202 21 2 -0.2000 18.8914  6.1447 42.0039
203 21 3  0.1000 16.6462  6.4218 42.1861
204 21 3  0.1000 17.4222  7.3570 40.9388
205 22 2 -0.2000  3.5042 13.2460 38.9464
206 22 3  0.1000  5.6363 12.5465 38.7125
207 22 3  0.1000  4.8823 13.2804 37.3466
208 23 2 -0.2000 28.2322 24.2494 41.2027
209 23 3  0.1000 29.2345 23.1935 39.5144
210 23 3  0.1000 28.5212 24.6444 39.0817
211 24 2 -0.2000 17.4811 -2.2205 34.3738
212 24 3  0.1000 15.6074 -1.1181 33.8756
213 24 3  0.1000 15.5755 -1.8974 35.3609
214 25 2 -0.2000 29.8914 27.9100 16.9828
215 25 3  0.1000 28.8411 25.8790 17.1932
216 25 3  0.1000 27.9016 27.2588 17.7427
217 26 2 -0.2000 33.2570 10.3391 17.6936
218 26 3  0.1000 31.6122  8.8746 18.1171
219 26 3  0.1000 31.2144 10.3064 17.1098
220 27 2 -0.2000 12.8075  7.0295 30.9205
221 27 3  0.1000 11.4376  6.9230 32.5685
222 27 3  0.1000 10.6802  7.0245 30.9836
223 28 2 -0.2000  4.6056 24.5122  5.5652
224 28 3  0.1000  3.2645 24.3534  7.0436
225 28 3  0.1000  3.1695 22.9378  6.1008
226 29 2 -0.2000 37.6011 32.1193  5.8097
227 29 3  0.1000 39.0884 32.8609  7.1198
228 29 3  0.1000 39.2012 31.1915  6.8582
229 30 2 -0.2000 15.8221 14.8399  1.2287
230 30 3  0.1000 14.6780 13.7152  2.8174
231 30 3  0.1000 14.1325 15.1658  2.3337
232 31 2 -0.2000 32.3038  2.0605 35.2971
233 31 3  0.1000 33.1751  0.1434 34.5150
234 31 3  0.1000 31.4418  0.4248 34.5412
235 32 2 -0.2000 27.4927 35.6729 12.3116
236 32 3  0.1000 26.0228 36.2666 10.7655
237 32 3  0.1000 26.7175 34.4897 10.5620
238 33 2 -0.2000 13.9943  7.6604  6.2327
239 33 3  0.1000 14.9749  8.4904  4.4803
240 33 3  0.1000 15.0190  6.8899  4.4513
241 34 2 -0.2000  5.0644 11.4113 21.2161
242 34 3  0.1000  6.7269 12.0728 22.4480
243 34 3  0.1000  7.1905 11.1334 21.0852
244 35 2 -0.2000 20.3190 19.5457  0.1536
245 35 3  0.1000 22.2378 18.6166 -0.5546
246 35 3  0.1000 22.2742 19.4172  0.8812
247 36 2 -0.2000  3.0764 33.4714 14.1113
248 36 3  0.1000  2.6859 33.1290 16.1887
249 36 3  0.1000  3.7910 32.0009 15.5077
250 37 2 -0.2000  4.4964 27.2274 28.9780
251 37 3  0.1000  2.6796 27.8389 27.7518
252 37 3  0.1000  4.1356 27.0763 26.9244
253 20 2 -0.2000 20.8729 18.9202 17.0625
254 20 3  0.1000 20.4964 16.5676 17.2987
255 20 3  0.1000 21.8517 17.1034 16.5360
256 21 2 -0.2000 19.0630  6.4529 43.5046
257 21 3  0.1000 19.6979  6.5927 41.3651
258 21 3  0.1000 19.0828  5.1633 41.8387
259 22 2 -0.2000  2.3528 13.5187 38.0133
260 22 3  0.1000  3.2716 13.7949 39.9145
261 22 3  0.1000  3.4151 12.1319 39.2447
262 23 2 -0.2000 28.7979 23.3997 42.3940
263 23 3  0.1000 27.0899 24.0252 41.1867
264 23 3  0.1000 28.2559 25.3943 41.4449
265 24 2 -0.2000 18.8232 -1.5346 34.3885
266 24 3  0.1000 17.2479 -2.8909 33.5742
267 24 3  0.1000 17.5164 -2.8978 35.2251
268 25 2 -0.2000 31.0618 27.2940 17.8456
269 25 3  0.1000 29.5989 29.0026 17.0618
270 25 3  0.1000 30.2472 27.7886 15.9724
271 26 2 -0.2000 32.7365 11.1372 18.9332
272 26 3  0.1000 33.5655 11.1031 16.9467
273 26 3  0.1000 34.2097  9.7608 17.8547
274 27 2 -0.2000 12.5314  8.4521 30.7507
275 27 3  0.1000 13.1743  6.4988 29.9396
276 27 3  0.1000 13.5772  6.9013 31.6325
277 28 2 -0.2000  4.4826 23.9228  4.1538
278 28 3  0.1000  5.5979 24.9616  5.7364
279 28 3  0.1000  3.8940 25.3951  5.3410
280 29 2 -0.2000 36.5332 30.9882  5.9563
281 29 3  0.1000 37.4969 32.5786  4.8294
282 29 3  0.1000 37.2255 32.9988  6.4065
283 30 2 -0.2000 17.2476 14.4496  1.8596
284 30 3  0.1000 15.9470 15.8936  1.1036
285 30 3  0.1000 15.7173 14.6247  0.1266
286 31 2 -0.2000 31.0332  2.7407 35.0248
287 31 3  0.1000 33.3052  2.5940 35.1750
288 31 3  0.1000 32.1737  1.6939 36.3624
289 32 2 -0.2000 27.6971 37.0985 12.8626
290 32 3  0.1000 28.5348 35.4437 11.9623
291 32 3  0.1000 27.3327 35.0036 13.1826
292 33 2 -0.2000 13.5779  6.1578  6.5483
293 33 3  0.1000 13.2630  8.5011  6.4368
294 33 3  0.1000 14.9476  8.0217  6.8220
295 34 2 -0.2000  3.6967 12.2190 21.6774
296 34 3  0.1000  4.9506 10.3781 21.5854
297 34 3  0.1000  4.9283 11.2518 20.0788
298 35 2 -0.2000 19.2138 18.6912 -0.5052
299 35 3  0.1000 20.5071 20.5489 -0.3644
300 35 3  0.1000 19.8782 19.6881  1.1870
301 36 2 -0.2000  3.3694 32.2257 13.2328
302 36 3  0.1000  3.3429 34.5017 13.9086
303 36 3  0.1000  1.9405 33.5295 14.0700
304 37 2 -0.2000  5.6072 26.2412 29.2771
305 37 3  0.1000  4.1196 27.7643 29.9067
306 37 3  0.1000  5.1759 28.0860 28.5267
307 20 2 -0.2000 19.5870 19.3894 17.6794
308 20 3  0.1000 21.1018 19.1439 16.0020
309 20 3  0.1000 21.5945 19.6633 17.5829
310 21 2 -0.2000 19.7033  7.7919 43.7833
311 21 3  0.1000 19.2278  5.5945 44.1685
312 21 3  0.1000 18.0882  6.6711 43.8295
313 22 2 -0.2000  2.8838 13.1818 36.6240
314 22 3  0.1000  1.9026 14.5322 38.2238
315 22 3  0.1000  1.4871 12.7526 38.1045
316 23 2 -0.2000 29.4353 24.1052 43.5277
317 23 3  0.1000 29.4389 22.6279 42.0307
318 23 3  0.1000 27.9130 22.8794 42.8415
319 24 2 -0.2000 19.9194 -1.9434 33.4050
320 24 3  0.1000 19.1582 -1.1852 35.3228
321 24 3  0.1000 18.5560 -0.5461 33.9667
322 25 2 -0.2000 32.1560 26.5289 16.9755
323 25 3  0.1000 30.7711 26.5553 18.7256
324 25 3  0.1000 31.5940 28.0512 18.3616
325 26 2 -0.2000 34.0209 11.8237 19.3592
326 26 3  0.1000 32.2846 10.4537 19.7281
327 26 3  0.1000 32.0084 11.8467 18.6509
328 27 2 -0.2000 13.1908  9.0303 29.5245
329 27 3  0.1000 12.7432  9.0374 31.6394
330 27 3  0.1000 11.4608  8.6533 30.6235
331 28 2 -0.2000  4.2084 24.9287  2.9545
332 28 3  0.1000  3.8457 23.0622  4.0750
333 28 3  0.1000  5.4134 23.4901  3.9726
334 29 2 -0.2000 35.1706 31.5898  5.7861
335 29 3  0.1000 36.5335 30.4664  6.9576
336 29 3  0.1000 36.6703 30.1209  5.3355
337 30 2 -0.2000 17.6213 13.0781  1.5120
338 30 3  0.1000 17.2887 14.7177  2.9322
339 30 3  0.1000 17.9517 15.1581  1.4865
340 31 2 -0.2000 31.2235  4.1755 35.3674
341 31 3  0.1000 30.1555  2.2661 35.4290
342 31 3  0.1000 30.8244  2.7985 33.9531
343 32 2 -0.2000 28.0460 37.0715 14.3415
344 32 3  0.1000 26.8646 37.7901 12.5487
345 32 3  0.1000 28.5645 37.6004 12.3711
346 33 2 -0.2000 13.2644  6.0050  8.0710
347 33 3  0.1000 14.2549  5.4537  5.9499
348 33 3  0.1000 12.5764  6.0177  6.0763
349 34 2 -0.2000  3.3660 12.0800 23.2020
350 34 3  0.1000  2.9330 11.9713 20.9115
351 34 3  0.1000  3.9565 13.2612 21.5456
352 35 2 -0.2000 18.8265 19.4752 -1.7171
353 35 3  0.1000 18.4273 18.3682  0.2186
354 35 3  0.1000 19.7273 17.7771 -0.8621
355 36 2 -0.2000  4.2250 32.9058 12.1056
356 36 3  0.1000  2.5609 31.7087 12.8466
357 36 3  0.1000  3.9249 31.4310 13.8887
358 37 2 -0.2000  6.9909 26.6278 28.7221
359 37 3  0.1000  5.2914 25.2320 29.0632
360 37 3  0.1000  5.6167 26.2415 30.3883
361 20 2 -0.2000 18.4011 19.3394 16.6730
362 20 3  0.1000 19.5694 20.4088 18.1490
363 20 3  0.1000 19.4644 18.7406 18.5932
364 21 2 -0.2000 19.4692  8.2641 45.2794
365 21 3  0.1000 19.3627  8.5337 43.1236
366 21 3  0.1000 20.7746  7.7128 43.6234
367 22 2 -0.2000  1.7947 13.0992 35.5902
368 22 3  0.1000  3.5088 12.3104 36.6700
369 22 3  0.1000  3.5068 13.9886 36.1204
370 23 2 -0.2000 30.9599 23.9724 43.6065
371 23 3  0.1000 28.9263 24.2541 44.4164
372 23 3  0.1000 29.4107 25.2110 43.2434
373 24 2 -0.2000 21.0992 -2.4809 34.2315
374 24 3  0.1000 20.0641 -1.2965 32.6444
375 24 3  0.1000 19.7570 -2.7417 32.7553
376 25 2 -0.2000 33.3545 26.2849 17.8052
377 25 3  0.1000 32.3942 26.9689 15.9706
378 25 3  0.1000 31.6984 25.4976 16.7937
379 26 2 -0.2000 34.9435 10.9208 20.1763
380 26 3  0.1000 33.8249 12.7229 19.8394
381 26 3  0.1000 34.6851 12.0623 18.4501
382 27 2 -0.2000 12.3125  8.6646 28.2815
383 27 3  0.1000 14.2490  8.8875 29.3148
384 27 3  0.1000 13.1053 10.1205 29.6701
385 28 2 -0.2000  2.8379 25.5853  2.8266
386 28 3  0.1000  4.4289 24.4971  1.9569
387 28 3  0.1000  4.8450 25.8419  3.1016
388 29 2 -0.2000 34.3595 31.4576  4.5003
389 29 3  0.1000 35.0855 32.5463  6.1060
390 29 3  0.1000 34.5607 31.0818  6.5335
391 30 2 -0.2000 18.6039 12.3902  2.4378
392 30 3  0.1000 17.7778 12.9004  0.4070
393 30 3  0.1000 16.6742 12.5973  1.7410
394 31 2 -0.2000 30.7498  4.4061 36.8434
395 31 3  0.1000 30.5452  4.7275 34.6410
396 31 3  0.1000 32.3391  4.4643 35.1978
397 32 2 -0.2000 28.0294 38.4274 14.9455
398 32 3  0.1000 29.0857 36.5564 14.3628
399 32 3  0.1000 27.3514 36.4474 14.9209
400 33 2 -0.2000 13.9299  6.7986  9.1692
401 33 3  0.1000 13.2585  4.9425  8.3812
402 33 3  0.1000 12.1883  6.2387  8.1873
403 34 2 -0.2000  2.5192 10.7896 23.5121
404 34 3  0.1000  2.9286 12.9873 23.6570
405 34 3  0.1000  4.3300 11.9244 23.7627
406 35 2 -0.2000 18.3273 18.4381 -2.7727
407 35 3  0.1000 19.6550 20.0266 -2.1915
408 35 3  0.1000 17.9530 20.2709 -1.5177
409 36 2 -0.2000  3.5423 32.5082 10.7860
410 36 3  0.1000  5.3055 32.9212 12.2169
411 36 3  0.1000  3.8806 33.9143 12.2969
412 37 2 -0.2000  7.4899 25.4837 28.0224
413 37 3  0.1000  7.6689 26.8860 29.5142
414 37 3  0.1000  6.9874 27.4269 28.0272
415 20 3  0.1000 17.6337 18.8889 17.2503
416 20 3  0.1000 18.6200 18.5864 15.8703
417 20 2 -0.2000 18.2093 20.7517 16.0301
418 21 3  0.1000 18.4017  7.9778 45.6503
419 21 3  0.1000 19.4388  9.3791 45.4550
420 21 2 -0.2000 20.4003  7.6068 46.2698
421 22 3  0.1000  2.2450 13.6388 34.6797
422 22 3  0.1000  0.8944 13.6233 35.8809
423 22 2 -0.2000  1.3218 11.6472 35.2409
424 23 3  0.1000 31.3227 25.0518 43.8086
425 23 3  0.1000 31.3384 23.6030 42.6536
426 23 2 -0.2000 31.1431 23.1678 44.8178
427 24 3  0.1000 21.6037 -1.7799 34.9178
428 24 3  0.1000 21.8205 -2.7102 33.4018
429 24 2 -0.2000 20.6889 -3.8104 35.0068
430 25 3  0.1000 33.4767 25.3231 18.2203
431 25 3  0.1000 33.2622 26.9348 18.6304
432 25 2 -0.2000 34.5866 26.7274 16.9958
433 26 3  0.1000 35.6178 11.5155 20.7997
434 26 3  0.1000 35.6722 10.4821 19.4190
435 26 2 -0.2000 34.4134  9.6221 20.9837
436 27 3  0.1000 11.4746  9.4029 28.0817
437 27 3  0.1000 11.7919  7.8039 28.5178
438 27 2 -0.2000 12.9472  8.1002 26.9485
439 28 3  0.1000  2.9139 26.7480  2.8683
440 28 3  0.1000  2.2904 25.2793  3.6965
441 28 2 -0.2000  2.1478 24.9286  1.6635
442 29 3  0.1000 33.7131 30.5551  4.2981
443 29 3  0.1000 35.0812 31.5895  3.7035
444 29 2 -0.2000 33.3770 32.7855  4.5184
445 30 3  0.1000 19.5920 12.4349  2.1086
446 30 3  0.1000 18.5076 11.2951  2.3855
447 30 2 -0.2000 18.3628 12.7281  3.9268
448 31 3  0.1000 31.6217  4.7542 37.4050
449 31 3  0.1000 30.5579  3.3613 37.2048
450 31 2 -0.2000 29.4563  5.2410 36.9918
451 32 3  0.1000 28.9773 38.6245 15.4670
452 32 3  0.1000 27.1603 38.4329 15.7136
453 32 2 -0.2000 27.7375 39.6731 14.1586
454 33 3  0.1000 14.5688  7.6318  8.8924
455 33 3  0.1000 14.6321  6.0108  9.5114
456 33 2 -0.2000 13.0126  7.0787 10.3882
457 34 3  0.1000  2.5968 10.1789 24.3999
458 34 3  0.1000  2.8155 10.0538 22.7453
459 34 2 -0.2000  1.0759 11.2019 23.1803
460 35 3  0.1000 18.9552 17.5373 -3.0139
461 35 3  0.1000 18.4789 18.9760 -3.6454
462 35 2 -0.2000 16.8002 18.3272 -2.7473
463 36 3  0.1000  3.5498 33.4344 10.1483
464 36 3  0.1000  2.4985 32.4363 10.9610
465 36 2 -0.2000  3.8639 31.0931 10.2455
466 37 3  0.1000  7.9434 25.6291 27.0800
467 37 3  0.1000  6.5536 24.8210 27.8539
468 37 2 -0.2000  8.4628 24.5742 28.7974
469 20 2 -0.2000 18.7204 20.8886 14.6251
470 20 3  0.1000 18.4916 21.6068 16.7638
471 20 3  0.1000 17.1063 20.7799 15.9749
472 21 2 -0.2000 21.7939  7.9596 45.6400
473 21 3  0.1000 20.1645  6.6083 46.3688
474 21 3  0.1000 20.2177  8.1308 47.2372
475 22 2 -0.2000  2.0637 10.8459 34.1075
476 22 3  0.1000  0.2347 11.4941 35.0557
477 22 3  0.1000  1.5265 11.0865 36.0675
478 23 2 -0.2000 32.6991 23.1115 44.8703
479 23 3  0.1000 30.6559 22.1906 44.6650
480 23 3  0.1000 30.7182 23.6454 45.7368
481 24 2 -0.2000 20.1299 -5.0912 34.2717
482 24 3  0.1000 20.1542 -3.5966 35.7770
483 24 3  0.1000 21.5765 -4.2179 35.4804
484 25 2 -0.2000 35.3682 25.4011 16.6389
485 25 3  0.1000 35.1976 27.2681 17.7198
486 25 3  0.1000 34.4240 27.5160 16.1386
487 26 2 -0.2000 35.3992  8.5046 20.9042
488 26 3  0.1000 33.3997  9.3871 21.0513
489 26 3  0.1000 34.5099  9.9834 22.0294
490 27 2 -0.2000 13.4445  6.6256 26.8400
491 27 3  0.1000 13.6417  8.8484 26.5219
492 27 3  0.1000 12.1455  8.0724 26.1716
493 28 2 -0.2000  1.5049 23.6040  1.9990
494 28 3  0.1000  2.7070 24.9266  0.6870
495 28 3  0.1000  1.2670 25.5243  1.4430
496 29 2 -0.2000 32.1284 32.5858  5.3568
497 29 3  0.1000 33.2081 33.1939  3.5220
498 29 3  0.1000 34.0037 33.5788  5.0124
499 30 2 -0.2000 17.0035 12.6410  4.4235
500 30 3  0.1000 18.7120 13.7550  4.0545
501 30 3  0.1000 19.0640 12.1576  4.4875
502 31 2 -0.2000 29.5163  6.1466 38.1304
503 31 3  0.1000 28.6214  4.5004 37.0399
504 31 3  0.1000 29.4014  5.8699 36.0356
505 32 2 -0.2000 27.6374 40.9433 15.0277
506 32 3  0.1000 27.0606 39.4745 13.3770
507 32 3  0.1000 28.6294 39.8913 13.5471
508 33 2 -0.2000 13.2211  8.2723 11.2108
509 33 3  0.1000 12.7659  6.1856 11.0864
510 33 3  0.1000 11.9499  7.2846  9.9244
511 34 2 -0.2000  0.5071 12.1573 24.0526
512 34 3  0.1000  0.4551 10.3241 22.9746
513 34 3  0.1000  1.0813 11.6987 22.2376
514 35 2 -0.2000 16.4367 16.9340 -3.0943
515 35 3  0.1000 16.2885 19.0423 -3.2921
516 35 3  0.1000 16.4202 18.3912 -1.7233
517 36 2 -0.2000  4.9466 31.1494  9.1437
518 36 3  0.1000  2.9245 30.5313  9.9126
519 36 3  0.1000  4.2864 30.4115 11.0645
520 37 2 -0.2000  9.2437 23.7557 27.7425
521 37 3  0.1000  7.8766 24.1346 29.6361
522 37 3  0.1000  9.1558 25.3207 29.1610
523 20 2 -0.2000 17.5334 21.2881 13.6933
524 20 3  0.1000 19.0418 19.9138 14.2857
525 20 3  0.1000 19.5004 21.5920 14.5154
526 21 2 -0.2000 22.7889  8.0422 46.8096
527 21 3  0.1000 21.8732  8.6270 44.7713
528 21 3  0.1000 22.1757  7.0076 45.1424
529 22 2 -0.2000  3.1125  9.8730 34.6453
530 22 3  0.1000  2.5716 11.4888 33.3351
531 22 3  0.1000  1.2734 10.3318 33.6085
532 23 2 -0.2000 33.4650 21.9980 44.4158
533 23 3  0.1000 33.0216 23.4375 45.8750
534 23 3  0.1000 32.9909 23.8692 44.1928
535 24 2 -0.2000 19.6349 -6.1700 35.1631
536 24 3  0.1000 20.6830 -5.5975 33.4430
537 24 3  0.1000 19.2429 -4.5711 33.7828
538 25 2 -0.2000 35.6596 25.4098 15.0878
539 25 3  0.1000 34.8583 24.4647 16.8354
540 25 3  0.1000 36.3993 25.3150 17.2520
541 26 2 -0.2000 35.5907  7.6632 22.1106
542 26 3  0.1000 36.2643  8.7653 20.3112
543 26 3  0.1000 34.9034  7.8476 20.1098
544 27 2 -0.2000 12.6820  5.8664 25.7546
545 27 3  0.1000 13.3944  5.9890 27.7582
546 27 3  0.1000 14.5138  6.6724 26.6368
547 28 2 -0.2000  0.6572 22.9687  0.7478
548 28 3  0.1000  0.8431 23.5559  2.8940
549 28 3  0.1000  2.3726 22.9980  2.2345
550 29 2 -0.2000 32.0856 33.4458  6.6775
551 29 3  0.1000 32.1256 31.5479  5.4318
552 29 3  0.1000 31.2743 32.9180  4.8072
553 30 2 -0.2000 16.4381 13.6895  5.3885
554 30 3  0.1000 16.9114 11.6347  4.8218
555 30 3  0.1000 16.2433 12.5882  3.5526
556 31 2 -0.2000 28.2453  6.8632 38.6946
557 31 3  0.1000 30.4324  6.8674 38.1166
558 31 3  0.1000 29.8346  5.4718 38.9725
559 32 2 -0.2000 27.4034 42.0416 13.9996
560 32 3  0.1000 28.3960 41.0005 15.6701
561 32 3  0.1000 26.7978 40.8077 15.5920
562 33 2 -0.2000 14.3263  7.8885 12.3024
563 33 3  0.1000 12.2511  8.8310 11.5209
564 33 3  0.1000 13.7809  9.0308 10.7303
565 34 2 -0.2000  0.5775 11.7712 25.5832
566 34 3  0.1000 -0.4753 12.5709 23.5728
567 34 3  0.1000  1.1328 12.9731 24.0881
568 35 2 -0.2000 15.1735 16.7415 -3.9676
569 35 3  0.1000 16.3885 16.2745 -2.1470
570 35 3  0.1000 17.3186 16.5653 -3.7259
571 36 2 -0.2000  4.5563 31.3875  7.7405
572 36 3  0.1000  5.7144 30.2952  9.3131
573 36 3  0.1000  5.5289 32.0466  9.4466
574 37 2 -0.2000 10.6691 23.3335 28.2941
575 37 3  0.1000  9.3109 24.2078 26.8447
576 37 3  0.1000  8.7694 22.8574 27.4863
577 20 2 -0.2000 17.7372 22.6472 13.0447
578 20 3  0.1000 16.6522 21.2954 14.3662
579 20 3  0.1000 17.3867 20.6032 12.8928
580 21 2 -0.2000 24.1569  7.5462 46.4892
581 21 3  0.1000 22.4117  7.4684 47.7903
582 21 3  0.1000 22.8210  9.1033 46.9685
583 22 2 -0.2000  3.7624  8.8633 33.7153
584 22 3  0.1000  2.8336  9.4007 35.5694
585 22 3  0.1000  3.9930 10.5114 34.9634
586 23 2 -0.2000 34.9220 22.4440 44.1204
587 23 3  0.1000 32.9996 21.3221 43.7495
588 23 3  0.1000 33.6267 21.3106 45.2696
589 24 2 -0.2000 20.6318 -7.3355 35.6304
590 24 3  0.1000 18.5926 -6.4149 35.0730
591 24 3  0.1000 19.5766 -5.5669 36.0922
592 25 2 -0.2000 37.0658 24.9799 14.8406
593 25 3  0.1000 35.3210 26.3105 14.5070
594 25 3  0.1000 35.0092 24.5795 14.6938
595 26 2 -0.2000 36.6484  6.6047 22.2369
596 26 3  0.1000 34.7703  7.5263 22.7593
597 26 3  0.1000 36.0232  8.4874 22.7082
598 27 2 -0.2000 12.0805  4.5327 26.2799
599 27 3  0.1000 13.2384  5.7054 24.9052
600 27 3  0.1000 11.9412  6.4713 25.2917
601 28 2 -0.2000 -0.9149 22.6704  1.1612
602 28 3  0.1000  1.1938 22.2114  0.0973
603 28 3  0.1000  0.5777 23.8175  0.1503
604 29 2 -0.2000 31.1481 32.5938  7.5288
605 29 3  0.1000 31.9754 34.5416  6.6738
606 29 3  0.1000 33.0690 33.3452  7.1024
607 30 2 -0.2000 15.4712 14.8120  4.9693
608 30 3  0.1000 17.1910 14.0135  6.1813
609 30 3  0.1000 15.6824 13.0882  5.9885
610 31 2 -0.2000 26.9850  5.9495 38.7564
611 31 3  0.1000 28.0707  7.8698 38.2573
612 31 3  0.1000 28.5294  7.1113 39.7370
613 32 2 -0.2000 28.4431 42.3826 12.8756
614 32 3  0.1000 26.8073 42.8550 14.4723
615 32 3  0.1000 26.6403 41.5828 13.3693
616 33 2 -0.2000 13.9323  8.7999 13.3957
617 33 3  0.1000 15.4337  7.6445 12.1556
618 33 3  0.1000 13.9637  6.9617 12.7103
619 34 2 -0.2000  1.0110 13.0109 26.3389
620 34 3  0.1000  1.0765 10.9228 25.9555
621 34 3  0.1000 -0.4433 11.5349 25.8943
622 35 2 -0.2000 15.3579 17.4397 -5.4132
623 35 3  0.1000 14.3139 17.0939 -3.4317
624 35 3  0.1000 15.1785 15.6502 -4.0288
625 36 2 -0.2000  5.4452 32.4361  7.2039
626 36 3  0.1000  3.5800 31.7367  7.5799
627 36 3  0.1000  4.6120 30.3974  7.2097
628 37 2 -0.2000 10.6207 23.3635 29.8066
629 37 3  0.1000 11.4852 23.9621 27.8456
630 37 3  0.1000 10.8724 22.3569 27.9782
631 20 2 -0.2000 16.4819 22.8654 12.4139
632 20 3  0.1000 18.5933 22.7963 12.3098
633 20 3  0.1000 17.8784 23.3785 13.8393
634 21 2 -0.2000 25.2836  7.4648 47.4887
635 21 3  0.1000 24.4544  7.9464 45.4420
636 21 3  0.1000 24.0015  6.5489 46.2402
637 22 2 -0.2000  4.9695  9.5438 33.1249
638 22 3  0.1000  3.1233  8.6078 32.8725
639 22 3  0.1000  4.0718  7.9457 34.2866
640 23 2 -0.2000 35.1580 22.0446 42.6085
641 23 3  0.1000 35.7180 22.1369 44.8248
642 23 3  0.1000 34.9548 23.5154 44.2017
643 24 2 -0.2000 20.0085 -8.7740 35.1964
644 24 3  0.1000 21.1920 -7.0926 36.6188
645 24 3  0.1000 21.4764 -7.3011 34.9454
646 25 2 -0.2000 37.9448 26.1873 14.7806
647 25 3  0.1000 37.1633 24.1838 14.0163
648 25 3  0.1000 37.4739 24.4812 15.8146
649 26 2 -0.2000 36.0817  5.2172 22.3482
650 26 3  0.1000 37.3881  6.8113 23.0976
651 26 3  0.1000 37.2997  6.5162 21.3770
652 27 2 -0.2000 13.2599  3.6505 26.8308
653 27 3  0.1000 11.5245  3.9720 25.4430
654 27 3  0.1000 11.3907  4.6604 27.2093
655 28 2 -0.2000 -1.5226 23.9438  0.7070
656 28 3  0.1000 -1.0272 22.3328  2.2507
657 28 3  0.1000 -1.2698 21.8409  0.5388
658 29 2 -0.2000 29.7114 32.6234  6.9652
659 29 3  0.1000 31.2176 32.3832  8.5786
660 29 3  0.1000 31.4955 31.7017  7.2740
661 30 2 -0.2000 15.6386 15.9400  6.0532
662 30 3  0.1000 14.3964 14.5345  4.6607
663 30 3  0.1000 15.9167 15.2666  4.0400
664 31 2 -0.2000 25.4898  6.3559 38.3857
665 31 3  0.1000 26.8915  5.2073 39.6188
666 31 3  0.1000 27.2024  5.2062 37.9959
667 32 2 -0.2000 28.6402 43.9107 12.7644
668 32 3  0.1000 28.2628 41.7524 12.0196
669 32 3  0.1000 29.4905 42.0074 13.3597
670 33 2 -0.2000 13.2109  8.2158 14.6587
671 33 3  0.1000 13.5887  9.8154 13.1025
672 33 3  0.1000 14.8881  9.1299 13.8889
673 34 2 -0.2000  2.2347 12.6543 27.3582
674 34 3  0.1000  0.1113 13.3919 26.8662
675 34 3  0.1000  1.3408 13.7260 25.6644
676 35 2 -0.2000 16.6493 17.0625 -6.1929
677 35 3  0.1000 15.3149 18.5227 -5.5169
678 35 3  0.1000 14.4676 17.1035 -5.9436
679 36 2 -0.2000  5.6938 32.6628  5.7480
680 36 3  0.1000  6.3759 32.1561  7.7950
681 36 3  0.1000  5.1173 33.4035  7.7138
682 37 2 -0.2000 11.6056 22.3357 30.4119
683 37 3  0.1000  9.5710 23.2088 30.2999
684 37 3  0.1000 10.8515 24.3047 30.1895
685 20 2 -0.2000 16.1964 22.3675 10.9462
686 20 3  0.1000 15.9838 23.8044 12.5550
687 20 3  0.1000 15.7506 22.2675 13.0444
688 21 2 -0.2000 26.5428  7.8617 46.8282
689 21 3  0.1000 25.5037  6.5634 47.9640
690 21 3  0.1000 24.9222  8.1625 48.2995
691 22 2 -0.2000  5.1274  8.6511 31.9317
692 22 3  0.1000  5.8080  9.7178 33.7873
693 22 3  0.1000  4.5187 10.5447 32.8172
694 23 2 -0.2000 35.5253 20.5942 42.2269
695 23 3  0.1000 35.7805 22.8036 42.0749
696 23 3  0.1000 34.1946 22.1804 42.1942
697 24 2 -0.2000 19.9946 -9.0420 33.6965
698 24 3  0.1000 18.9907 -8.8827 35.5285
699 24 3  0.1000 20.5956 -9.5424 35.5869
700 25 2 -0.2000 39.3604 25.7451 15.4048
701 25 3  0.1000 37.5081 27.1042 15.2417
702 25 3  0.1000 38.1214 26.4654 13.7433
703 26 2 -0.2000 35.2793  4.9137 21.1227
704 26 3  0.1000 35.5158  5.0549 23.3506
705 26 3  0.1000 36.9591  4.5871 22.3492
706 27 2 -0.2000 12.7549  2.1603 26.8974
707 27 3  0.1000 13.8183  4.1714 27.6155
708 27 3  0.1000 13.9106  3.6287 25.9746
709 28 2 -0.2000 -2.2191 24.1501 -0.7103
710 28 3  0.1000 -0.9134 24.8416  0.9159
711 28 3  0.1000 -2.4255 23.9621  1.4265
712 29 2 -0.2000 28.8859 32.2980  8.1852
713 29 3  0.1000 29.4491 31.8105  6.1416