LAMMPS DATA FILE

4032 atoms 
 4014 bonds 
 7992 angles 
 11826 dihedrals 
 0 impropers 

 3 atom types 
 4 bond types 
 7 angle types 
 8 dihedral types 
 0 improper types 

0.00000  40.0000  xlo xhi
0.00000  40.0000  ylo yhi
0.00000  40.0000  zlo zhi

Masses

1  12.01115 
2  12.01115 
3  1.00797 

Pair Coeffs

1  0.038999995200   3.875409
2  0.038999995200   3.875409
3  0.038000001100   2.449971

Bond Coeffs

1 322.715800 1.526000 
2 340.617500 1.105000 
3 322.715800 1.526000 
4 340.617500 1.105000 

Angle Coeffs

1 46.600000 110.500000 
2 46.600000 110.500000 
3 44.400000 110.000000 
4 39.500000 106.400000 
5 44.400000 110.000000 
6 44.400000 110.000000 
7 39.500000 106.400000 

Dihedral Coeffs

1 0.158100 1 3 
2 0.158100 1 3 
3 0.158100 1 3 
4 0.158100 1 3 
5 0.158100 1 3 
6 0.158100 1 3 
7 0.158100 1 3 
8 0.158100 1 3 

Atoms

1 20 1 -0.3000 37.8302 29.0678  4.1393
2 20 2 -0.2000 37.6596 28.9648  5.6146
3 20 3  0.1000 36.8440 29.0034  3.6298
4 20 3  0.1000 38.7606 28.4944  3.8991
5 20 3  0.1000 38.1548 30.0967  3.7964
6 20 2 -0.2000 37.2801 27.7802  6.3590
7 20 3  0.1000 37.0724 29.7238  5.9069
8 20 3  0.1000 38.6961 29.1608  6.0587
9 20 2 -0.2000 35.6726 27.5695  6.1829
10 20 3  0.1000 37.5043 27.9729  7.4293
11 20 3  0.1000 37.8857 26.9619  6.0014
12 21 1 -0.3000  2.4800 39.3024 22.9879
13 21 2 -0.2000  1.0880 39.8481 23.3853
14 21 3  0.1000  2.4886 38.2912 23.4458
15 21 3  0.1000  3.4736 39.8024 23.3475
16 21 3  0.1000  2.6284 39.2123 21.9409
17 21 2 -0.2000  0.9962 41.3821 23.4700
18 21 3  0.1000  0.6027 39.2269 24.1126
19 21 3  0.1000  0.6532 39.6532 22.4593
20 21 2 -0.2000  1.5675 41.9210 24.7685
21 21 3  0.1000 -0.0252 41.6887 23.2017
22 21 3  0.1000  1.6451 41.8916 22.7389
23 22 1 -0.3000  2.0455 33.9040  9.6807
24 22 2 -0.2000  0.5760 33.5354  9.9534
25 22 3  0.1000  2.3762 34.9812  9.9709
26 22 3  0.1000  2.4687 33.5916  8.7239
27 22 3  0.1000  2.7093 33.2599 10.3196
28 22 2 -0.2000  0.6424 32.3544 10.8183
29 22 3  0.1000 -0.2196 33.4583  9.1510
30 22 3  0.1000  0.1377 34.3131 10.6305
31 22 2 -0.2000 -0.1810 32.5536 12.1572
32 22 3  0.1000  1.5790 32.0348 11.1236
33 22 3  0.1000  0.1120 31.5383 10.2476
34 23 1 -0.3000 23.5428 17.5706  9.5420
35 23 2 -0.2000 22.9888 17.0577 10.8567
36 23 3  0.1000 23.1613 17.0082  8.6655
37 23 3  0.1000 24.7057 17.6129  9.6089
38 23 3  0.1000 23.1535 18.5541  9.2733
39 23 2 -0.2000 23.9429 15.8625 11.2967
40 23 3  0.1000 21.9748 16.6685 10.8470
41 23 3  0.1000 23.0031 17.9956 11.4659
42 23 2 -0.2000 24.1038 15.5096 12.7821
43 23 3  0.1000 25.0313 16.0213 10.9443
44 23 3  0.1000 23.6339 14.9160 10.7317
45 24 1 -0.3000 29.1026 20.2224 16.8840
46 24 2 -0.2000 30.5686 19.8856 16.3300
47 24 3  0.1000 28.7162 21.2369 16.4748
48 24 3  0.1000 29.0590 20.0704 17.9730
49 24 3  0.1000 28.4452 19.3343 16.5830
50 24 2 -0.2000 30.7819 18.3948 15.9772
51 24 3  0.1000 31.5026 20.3700 16.7738
52 24 3  0.1000 30.5394 20.3996 15.2669
53 24 2 -0.2000 29.8286 18.1400 14.8455
54 24 3  0.1000 30.6813 17.8818 16.9653
55 24 3  0.1000 31.8578 18.2543 15.7061
56 25 1 -0.3000 26.3659  5.6235 12.0080
57 25 2 -0.2000 24.9738  5.5143 11.4180
58 25 3  0.1000 26.2682  5.7570 13.1518
59 25 3  0.1000 26.9094  6.5260 11.5852
60 25 3  0.1000 27.0308  4.7430 11.8342
61 25 2 -0.2000 23.8546  5.9695 12.3562
62 25 3  0.1000 24.7255  4.5485 10.9396
63 25 3  0.1000 24.9340  6.2193 10.5625
64 25 2 -0.2000 22.7896  6.7974 11.5635
65 25 3  0.1000 24.4032  6.5373 13.1431
66 25 3  0.1000 23.4415  5.1054 12.8082
67 26 1 -0.3000 12.3800 23.8791 15.6025
68 26 2 -0.2000 13.1611 24.0678 16.8603
69 26 3  0.1000 12.7011 24.5146 14.8160
70 26 3  0.1000 11.2760 23.8762 15.6646
71 26 3  0.1000 12.6198 22.8162 15.2423
72 26 2 -0.2000 14.2260 24.9975 16.3733
73 26 3  0.1000 13.5257 23.2053 17.4726
74 26 3  0.1000 12.6103 24.6247 17.5005
75 26 2 -0.2000 15.1758 25.2047 17.4858
76 26 3  0.1000 13.6457 25.8054 16.1528
77 26 3  0.1000 14.7623 24.5592 15.4506
78 27 1 -0.3000 11.3253  7.7173 29.6112
79 27 2 -0.2000 12.3331  8.3948 30.4821
80 27 3  0.1000 11.2928  8.1604 28.5145
81 27 3  0.1000 10.2300  7.7381 29.8578
82 27 3  0.1000 11.5113  6.6845 29.3975
83 27 2 -0.2000 13.7787  7.9295 30.2681
84 27 3  0.1000 11.8002  8.5973 31.4598
85 27 3  0.1000 12.3405  9.3909 30.0283
86 27 2 -0.2000 14.0229  8.4482 28.7843
87 27 3  0.1000 13.9948  6.8866 30.3457
88 27 3  0.1000 14.5137  8.4886 30.9931
89 28 1 -0.3000 17.9628 15.2417 30.3862
90 28 2 -0.2000 18.8020 13.9288 30.4123
91 28 3  0.1000 17.4450 15.4713 31.2930
92 28 3  0.1000 17.3152 15.3297 29.4673
93 28 3  0.1000 18.8155 15.9725 30.2485
94 28 2 -0.2000 17.8730 12.7221 30.4660
95 28 3  0.1000 19.3335 13.9434 31.3359
96 28 3  0.1000 19.5085 13.8970 29.5160
97 28 2 -0.2000 18.6565 11.4615 30.0442
98 28 3  0.1000 16.8191 12.8368 30.0538
99 28 3  0.1000 17.6841 12.5623 31.5651
100 29 1 -0.3000 10.0705 29.0679 24.0492
101 29 2 -0.2000  9.2158 27.8819 23.6806
102 29 3  0.1000  9.8685 29.9342 23.5023
103 29 3  0.1000 11.0946 28.8441 23.9362
104 29 3  0.1000 10.1301 29.3917 25.1449
105 29 2 -0.2000 10.0066 27.0647 22.6496
106 29 3  0.1000  8.2286 28.1642 23.2312
107 29 3  0.1000  9.0275 27.3201 24.6087
108 29 2 -0.2000 10.8074 25.7616 23.0552
109 29 3  0.1000 10.7060 27.8304 22.2226
110 29 3  0.1000  9.2299 26.6857 21.8634
111 30 1 -0.3000 31.0142  9.3860  7.7937
112 30 2 -0.2000 31.1135  9.2876  9.3391
113 30 3  0.1000 31.1203 10.4144  7.3284
114 30 3  0.1000 29.9874  9.1125  7.4806
115 30 3  0.1000 31.6898  8.6454  7.2888
116 30 2 -0.2000 29.7466  9.4071  9.8977
117 30 3  0.1000 31.9035  9.9735  9.8024
118 30 3  0.1000 31.5730  8.2980  9.6019
119 30 2 -0.2000 29.2865  8.1825 10.6625
120 30 3  0.1000 28.9686  9.6498  9.1877
121 30 3  0.1000 29.8197 10.3213 10.6184
122 31 1 -0.3000 28.3423  2.0631 20.7550
123 31 2 -0.2000 27.0185  2.8854 20.7927
124 31 3  0.1000 28.1881  1.0205 21.1279
125 31 3  0.1000 29.0964  2.4016 21.4564
126 31 3  0.1000 28.8371  1.9010 19.6924
127 31 2 -0.2000 26.8247  3.1958 22.3152
128 31 3  0.1000 26.1379  2.4339 20.2026
129 31 3  0.1000 27.0897  3.8929 20.2401
130 31 2 -0.2000 25.9694  4.4609 22.5926
131 31 3  0.1000 27.7731  3.3352 22.8164
132 31 3  0.1000 26.4390  2.2893 22.7997
133 32 1 -0.3000  6.9481 11.0442 22.3064
134 32 2 -0.2000  7.0906 11.1751 23.7922
135 32 3  0.1000  6.6325 11.9687 21.8062
136 32 3  0.1000  6.4322 10.1094 21.8790
137 32 3  0.1000  8.0058 10.9262 22.0282
138 32 2 -0.2000  7.8977 10.0028 24.2169
139 32 3  0.1000  6.0433 11.1498 24.3708
140 32 3  0.1000  7.6451 12.0546 24.1212
141 32 2 -0.2000  9.3648 10.4549 24.3940
142 32 3  0.1000  7.8980  8.9737 23.6034
143 32 3  0.1000  7.5555  9.7359 25.2338
144 33 1 -0.3000 20.4756  8.9871 38.2465
145 33 2 -0.2000 19.3033  9.4530 37.2277
146 33 3  0.1000 21.1711  8.2853 37.8272
147 33 3  0.1000 20.1392  8.5598 39.2064
148 33 3  0.1000 20.9959  9.9941 38.5146
149 33 2 -0.2000 19.9124  9.7941 35.9005
150 33 3  0.1000 18.6346 10.2159 37.6707
151 33 3  0.1000 18.6345  8.6807 37.0393
152 33 2 -0.2000 20.5605 11.0994 35.9608
153 33 3  0.1000 19.1479  9.7128 35.1711
154 33 3  0.1000 20.7042  9.0762 35.6207
155 34 1 -0.3000 34.7648 25.5577 27.7937
156 34 2 -0.2000 33.3329 25.4195 27.3455
157 34 3  0.1000 35.2362 24.8726 28.5343
158 34 3  0.1000 35.1437 26.6628 27.8827
159 34 3  0.1000 35.3799 25.2152 26.9246
160 34 2 -0.2000 32.9844 26.0542 26.0899
161 34 3  0.1000 32.5942 25.5124 28.1487
162 34 3  0.1000 33.3490 24.3536 27.0998
163 34 2 -0.2000 33.3181 25.1871 24.8984
164 34 3  0.1000 33.3101 27.1277 26.1791
165 34 3  0.1000 31.9299 26.0683 25.9807
166 35 1 -0.3000  4.8020 23.3685 15.6112
167 35 2 -0.2000  6.2968 23.5941 15.6825
168 35 3  0.1000  4.3959 24.0459 14.7010
169 35 3  0.1000  4.1905 23.5917 16.4668
170 35 3  0.1000  4.5682 22.3456 15.2994
171 35 2 -0.2000  6.5702 25.1290 15.7411
172 35 3  0.1000  7.1148 23.0868 15.2723
173 35 3  0.1000  6.5300 23.3089 16.7293
174 35 2 -0.2000  7.9849 25.2620 16.3983
175 35 3  0.1000  5.7914 25.7528 16.2995
176 35 3  0.1000  6.5421 25.5536 14.7171
177 36 1 -0.3000  7.2377 10.2255 15.1751
178 36 2 -0.2000  7.3336  9.2338 16.3121
179 36 3  0.1000  6.5805 11.1251 15.4227
180 36 3  0.1000  6.9071  9.6789 14.2382
181 36 3  0.1000  8.1742 10.7728 14.8870
182 36 2 -0.2000  7.2743  7.8554 15.8215
183 36 3  0.1000  6.5632  9.3874 17.0492
184 36 3  0.1000  8.2186  9.4029 16.9792
185 36 2 -0.2000  6.3960  7.0150 16.5812
186 36 3  0.1000  8.2347  7.2823 15.7162
187 36 3  0.1000  6.9412  7.9734 14.8145
188 37 1 -0.3000 20.5151 34.1863 21.5682
189 37 2 -0.2000 19.5293 34.3598 20.3993
190 37 3  0.1000 20.6980 35.1696 22.0859
191 37 3  0.1000 21.4401 33.5172 21.4614
192 37 3  0.1000 20.0634 33.6850 22.4157
193 37 2 -0.2000 18.1640 34.2591 21.0976
194 37 3  0.1000 19.5842 33.7491 19.4277
195 37 3  0.1000 19.8139 35.3967 20.0740
196 37 2 -0.2000 17.2781 35.5474 20.8323
197 37 3  0.1000 18.2785 33.9503 22.0680
198 37 3  0.1000 17.6737 33.3818 20.5875
199 20 2 -0.2000 35.4096 27.0498  4.7599
200 20 3  0.1000 35.0176 28.4658  6.6650
201 20 3  0.1000 35.3981 26.7392  6.7703
202 21 2 -0.2000  1.1036 41.1924 25.9803
203 21 3  0.1000  1.2645 43.0290 24.7537
204 21 3  0.1000  2.6812 41.7087 24.8634
205 22 2 -0.2000 -1.6019 31.7872 12.1916
206 22 3  0.1000 -0.1361 33.5688 12.4791
207 22 3  0.1000  0.3886 32.0556 12.9236
208 23 2 -0.2000 24.9419 14.2849 12.9241
209 23 3  0.1000 23.1860 15.4593 13.4253
210 23 3  0.1000 24.6406 16.5172 13.1491
211 24 2 -0.2000 30.0609 16.8338 14.1889
212 24 3  0.1000 29.7886 18.9898 14.0950
213 24 3  0.1000 28.7834 18.2413 15.2382
214 25 2 -0.2000 21.8264  7.5335 12.5121
215 25 3  0.1000 22.1974  6.1455 10.8174
216 25 3  0.1000 23.2810  7.6519 10.9196
217 26 2 -0.2000 15.9541 24.0047 18.0282
218 26 3  0.1000 14.7536 25.7972 18.2542
219 26 3  0.1000 15.9589 25.8415 17.0895
220 27 2 -0.2000 14.4248  7.1484 27.8715
221 27 3  0.1000 14.9234  9.0666 28.6686
222 27 3  0.1000 13.2143  9.0266 28.3318
223 28 2 -0.2000 17.9505 10.1981 30.4642
224 28 3  0.1000 19.6294 11.6561 30.2944
225 28 3  0.1000 18.6990 11.4783 28.8882
226 29 2 -0.2000 11.8536 25.1835 22.1105
227 29 3  0.1000 10.2772 24.8581 23.4788
228 29 3  0.1000 11.3565 26.0865 23.9786
229 30 2 -0.2000 30.0189  8.2397 12.0319
230 30 3  0.1000 29.4823  7.1907 10.0795
231 30 3  0.1000 28.1957  8.4022 10.7466
232 31 2 -0.2000 25.6068  4.7092 24.1210
233 31 3  0.1000 25.1545  4.7668 21.9088
234 31 3  0.1000 26.7246  5.1864 22.3081
235 32 2 -0.2000  9.5590 11.2369 25.6586
236 32 3  0.1000  9.6893 10.8810 23.4569
237 32 3  0.1000 10.0631  9.6255 24.3433
238 33 2 -0.2000 20.1769 12.2349 35.1189
239 33 3  0.1000 21.6452 10.8768 36.2504
240 33 3  0.1000 20.3010 11.5465 37.0148
241 34 2 -0.2000 34.0905 26.0416 23.8779
242 34 3  0.1000 32.5962 24.5525 24.3707
243 34 3  0.1000 34.1455 24.4984 25.2630
244 35 2 -0.2000  8.2702 26.7375 16.6613
245 35 3  0.1000  8.7874 24.7174 15.8137
246 35 3  0.1000  7.8916 24.7765 17.4214
247 36 2 -0.2000  4.9073  7.0845 16.4421
248 36 3  0.1000  6.8345  6.8956 17.6064
249 36 3  0.1000  6.6305  6.0136 16.1828
250 37 2 -0.2000 17.6290 36.7970 19.9424
251 37 3  0.1000 16.5113 35.8719 21.6754
252 37 3  0.1000 16.5551 35.0544 20.0940
253 20 2 -0.2000 34.5694 25.7714  4.4663
254 20 3  0.1000 36.2914 27.0126  4.1942
255 20 3  0.1000 34.8858 27.8782  4.3039
256 21 2 -0.2000  2.2873 40.7074 26.7642
257 21 3  0.1000  0.3336 40.2641 25.7419
258 21 3  0.1000  0.4919 41.9078 26.6189
259 22 2 -0.2000 -2.3468 31.5749 13.4621
260 22 3  0.1000 -1.5609 30.7710 11.7777
261 22 3  0.1000 -2.3512 32.4500 11.5212
262 23 2 -0.2000 26.1393 14.3246 13.8856
263 23 3  0.1000 25.3547 13.9843 11.9076
264 23 3  0.1000 24.3732 13.4521 13.2198
265 24 2 -0.2000 30.4166 16.6622 12.7023
266 24 3  0.1000 29.4828 15.9627 14.5613
267 24 3  0.1000 30.9698 16.5666 14.6381
268 25 2 -0.2000 20.5502  8.0961 11.7581
269 25 3  0.1000 22.1990  8.1022 13.2934
270 25 3  0.1000 21.3185  6.6558 13.1085
271 26 2 -0.2000 15.3601 23.6091 19.3873
272 26 3  0.1000 17.1126 24.1019 18.0343
273 26 3  0.1000 15.8127 23.0867 17.3760
274 27 2 -0.2000 13.9586  7.4989 26.4626
275 27 3  0.1000 14.1497  6.0972 28.1657
276 27 3  0.1000 15.5456  7.1197 27.9132
277 28 2 -0.2000 18.8673  8.9763 30.6398
278 28 3  0.1000 16.9096 10.0081 30.1124
279 28 3  0.1000 17.6076 10.4383 31.5360
280 29 2 -0.2000 11.8333 23.6225 22.3863
281 29 3  0.1000 12.8571 25.5580 22.1037
282 29 3  0.1000 11.3819 25.3341 21.1184
283 30 2 -0.2000 30.3686  6.8590 12.2998
284 30 3  0.1000 29.4242  8.7964 12.6936
285 30 3  0.1000 31.0738  8.7796 12.0055
286 31 2 -0.2000 24.5869  3.8181 24.5892
287 31 3  0.1000 25.3256  5.6967 24.4626
288 31 3  0.1000 26.5538  4.5267 24.6637
289 32 2 -0.2000  9.7406 12.6998 25.5095
290 32 3  0.1000 10.3872 10.6412 26.2572
291 32 3  0.1000  8.6233 11.1749 26.1727
292 33 2 -0.2000 18.8848 12.7743 35.8034
293 33 3  0.1000 20.0993 11.8253 34.0759
294 33 3  0.1000 21.0211 13.0342 35.1842
295 34 2 -0.2000 35.5720 25.8604 24.0229
296 34 3  0.1000 33.6055 26.9929 23.8620
297 34 3  0.1000 33.9228 25.6832 22.9010
298 35 2 -0.2000  9.4854 27.3723 16.0626
299 35 3  0.1000  8.1088 26.8242 17.8184
300 35 3  0.1000  7.3704 27.2132 16.2164
301 36 2 -0.2000  4.1633  7.1912 17.7906
302 36 3  0.1000  4.5171  6.5153 15.6034
303 36 3  0.1000  4.6352  8.0986 16.0018
304 37 2 -0.2000 16.8280 36.7436 18.5973
305 37 3  0.1000 18.6878 36.8046 19.5353
306 37 3  0.1000 17.5244 37.8497 20.3672
307 20 2 -0.2000 35.2478 24.5731  5.0990
308 20 3  0.1000 34.5373 25.7074  3.4283
309 20 3  0.1000 33.5608 25.7641  4.9689
310 21 2 -0.2000  1.7140 40.4301 28.1233
311 21 3  0.1000  3.2357 41.2536 26.5414
312 21 3  0.1000  2.5289 39.6687 26.4322
313 22 2 -0.2000 -2.3553 32.9311 14.1881
314 22 3  0.1000 -2.0121 30.5982 14.0027
315 22 3  0.1000 -3.3710 31.3433 13.1339
316 23 2 -0.2000 26.8876 12.9422 14.0474
317 23 3  0.1000 26.1371 14.9990 14.6526
318 23 3  0.1000 26.9161 14.8611 13.2124
319 24 2 -0.2000 31.9403 16.3043 12.4309
320 24 3  0.1000 30.0385 17.5106 12.1371
321 24 3  0.1000 29.7344 15.8666 12.3894
322 25 2 -0.2000 20.8900  8.8776 10.4460
323 25 3  0.1000 19.8355  8.5259 12.5092
324 25 3  0.1000 19.9555  7.1639 11.3749
325 26 2 -0.2000 16.3013 22.5991 19.8272
326 26 3  0.1000 14.3908 23.2031 19.3919
327 26 3  0.1000 15.4127 24.5658 20.1201
328 27 2 -0.2000 14.4822  8.7164 25.6824
329 27 3  0.1000 12.8749  7.2898 26.3564
330 27 3  0.1000 14.3198  6.6730 25.9786
331 28 2 -0.2000 19.1086  8.6778 32.1442
332 28 3  0.1000 19.7696  9.0347 30.0120
333 28 3  0.1000 18.2795  8.1699 30.2326
334 29 2 -0.2000 12.9153 23.0414 23.3271
335 29 3  0.1000 11.7825 23.1169 21.4262
336 29 3  0.1000 10.8590 23.4097 22.7869
337 30 2 -0.2000 30.2731  6.7414 13.8125
338 30 3  0.1000 31.3403  6.5505 12.0453
339 30 3  0.1000 29.5754  6.1621 11.8547
340 31 2 -0.2000 23.2770  4.5452 24.9360
341 31 3  0.1000 24.8627  3.1990 25.4947
342 31 3  0.1000 24.3558  3.0248 23.7957
343 32 2 -0.2000 10.0577 13.2215 24.0425
344 32 3  0.1000 10.5325 13.2189 26.1522
345 32 3  0.1000  8.7594 13.1585 25.6318
346 33 2 -0.2000 18.5783 14.2421 35.3258
347 33 3  0.1000 18.7456 12.4990 36.8583
348 33 3  0.1000 18.0691 12.1504 35.2636
349 34 2 -0.2000 36.3329 26.8129 23.1322
350 34 3  0.1000 35.9154 24.7852 23.8251
351 34 3  0.1000 35.8460 26.1472 25.0195
352 35 2 -0.2000  9.6508 26.9810 14.5209
353 35 3  0.1000 10.4723 27.2884 16.6865
354 35 3  0.1000  9.2475 28.4923 15.9752
355 36 2 -0.2000  2.6964  7.3113 17.8993
356 36 3  0.1000  4.7183  7.8446 18.5345
357 36 3  0.1000  4.3819  6.1723 18.2798
358 37 2 -0.2000 17.9047 36.3115 17.5526
359 37 3  0.1000 16.2037 37.5580 18.3696
360 37 3  0.1000 16.0602 35.9485 18.6789
361 20 2 -0.2000 34.3836 23.3019  5.0919
362 20 3  0.1000 35.4195 24.6331  6.2017
363 20 3  0.1000 36.2355 24.3686  4.5611
364 21 2 -0.2000  1.2008 39.0236 28.2110
365 21 3  0.1000  1.0137 41.2715 28.4234
366 21 3  0.1000  2.4711 40.3723 28.8967
367 22 2 -0.2000 -1.8618 33.1086 15.7126
368 22 3  0.1000 -3.3708 33.5081 14.0213
369 22 3  0.1000 -1.7616 33.6190 13.6572
370 23 2 -0.2000 26.7856 12.4977 15.4918
371 23 3  0.1000 27.8885 12.8663 13.6049
372 23 3  0.1000 26.3292 12.1515 13.5657
373 24 2 -0.2000 32.2135 15.2036 11.3910
374 24 3  0.1000 32.4484 16.2364 13.3979
375 24 3  0.1000 32.3643 17.2133 11.8894
376 25 2 -0.2000 20.4899  8.3858  9.1068
377 25 3  0.1000 21.9333  9.1358 10.4695
378 25 3  0.1000 20.3610  9.8765 10.6216
379 26 2 -0.2000 15.5899 21.3048 20.1231
380 26 3  0.1000 17.0275 22.8351 20.6791
381 26 3  0.1000 16.8932 22.3910 18.9499
382 27 2 -0.2000 14.3753  8.3891 24.2205
383 27 3  0.1000 15.4829  9.0448 26.0413
384 27 3  0.1000 13.8540  9.6121 25.9114
385 28 2 -0.2000 20.3029  7.9281 32.5258
386 28 3  0.1000 18.2406  8.1023 32.5795
387 28 3  0.1000 19.1780  9.6327 32.7784
388 29 2 -0.2000 12.4378 22.7328 24.7037
389 29 3  0.1000 13.8970 23.5046 23.4871
390 29 3  0.1000 12.9836 21.9906 22.9554
391 30 2 -0.2000 30.7005  5.3801 14.1915
392 30 3  0.1000 29.3186  7.1185 14.2100
393 30 3  0.1000 30.9334  7.4725 14.2273
394 31 2 -0.2000 22.1102  3.5425 25.4509
395 31 3  0.1000 23.1050  5.0702 23.9793
396 31 3  0.1000 23.5305  5.3657 25.5463
397 32 2 -0.2000 10.5732 14.6530 24.0030
398 32 3  0.1000  9.2916 13.0484 23.3092
399 32 3  0.1000 10.9401 12.6069 23.6728
400 33 2 -0.2000 17.0834 14.4614 35.1402
401 33 3  0.1000 19.3766 14.7005 34.7971
402 33 3  0.1000 18.7679 14.8954 36.1800
403 34 2 -0.2000 36.1419 28.2099 23.7043
404 34 3  0.1000 36.1316 26.6622 22.0036
405 34 3  0.1000 37.4065 26.5067 23.2858
406 35 2 -0.2000 10.4863 28.1891 14.0868
407 35 3  0.1000  8.7353 26.8499 13.9482
408 35 3  0.1000 10.3311 26.0678 14.3754
409 36 2 -0.2000  2.0577  8.2179 16.7880
410 36 3  0.1000  2.2404  7.6757 18.9119
411 36 3  0.1000  2.3564  6.2662 17.8237
412 37 2 -0.2000 17.5699 37.3410 16.5183
413 37 3  0.1000 17.8533 35.2225 17.2611
414 37 3  0.1000 18.9209 36.4513 17.8465
415 20 3  0.1000 33.9841 23.1467  4.0800
416 20 3  0.1000 33.4500 23.2970  5.7914
417 20 2 -0.2000 35.1523 22.1069  5.4565
418 21 3  0.1000  1.7349 38.3645 27.5149
419 21 3  0.1000  0.2116 38.9331 27.7715
420 21 2 -0.2000  1.2496 38.6014 29.6967
421 22 3  0.1000 -0.8167 32.7313 15.6553
422 22 3  0.1000 -2.5583 32.4977 16.3352
423 22 2 -0.2000 -2.0932 34.5334 16.1120
424 23 3  0.1000 25.7685 12.4699 16.0614
425 23 3  0.1000 27.4324 13.2098 16.0903
426 23 2 -0.2000 27.4562 11.1473 15.5361
427 24 3  0.1000 32.2477 15.6012 10.3538
428 24 3  0.1000 31.2806 14.6217 11.3750
429 24 2 -0.2000 33.2825 14.1943 11.8413
430 25 3  0.1000 20.0117  7.3473  9.2176
431 25 3  0.1000 21.3748  8.1681  8.4843
432 25 2 -0.2000 19.6680  9.4298  8.2403
433 26 3  0.1000 14.6290 21.2272 19.6374
434 26 3  0.1000 15.3714 21.3110 21.1866
435 26 2 -0.2000 16.5662 20.1003 19.8142
436 27 3  0.1000 15.0098  7.5539 23.9509
437 27 3  0.1000 14.9815  9.2509 23.7964
438 27 2 -0.2000 13.0359  8.4525 23.5008
439 28 3  0.1000 21.0704  8.5934 33.0875
440 28 3  0.1000 20.9015  7.9166 31.5231
441 28 2 -0.2000 20.2646  6.4672 32.8135
442 29 3  0.1000 11.3359 22.7087 24.5677
443 29 3  0.1000 12.6065 23.6077 25.3950
444 29 2 -0.2000 13.0751 21.4789 25.2734
445 30 3  0.1000 31.7700  5.2599 14.1654
446 30 3  0.1000 30.2358  4.5167 13.5193
447 30 2 -0.2000 30.3881  4.8946 15.5841
448 31 3  0.1000 21.9715  3.5854 26.4990
449 31 3  0.1000 22.4016  2.4555 25.2593
450 31 2 -0.2000 20.7526  3.9180 24.8930
451 32 3  0.1000 11.5253 14.8438 23.4801
452 32 3  0.1000 10.7823 14.8632 25.0714
453 32 2 -0.2000  9.4901 15.6469 23.5066
454 33 3  0.1000 16.7146 14.1731 36.1246
455 33 3  0.1000 16.6522 13.7960 34.3183
456 33 2 -0.2000 17.0057 15.9270 34.7614
457 34 3  0.1000 35.4538 28.2824 24.5191
458 34 3  0.1000 35.5761 28.7943 22.9037
459 34 2 -0.2000 37.3278 29.0430 24.0984
460 35 3  0.1000 11.0474 28.8008 14.8615
461 35 3  0.1000  9.7666 28.9416 13.6604
462 35 2 -0.2000 11.3260 27.6223 12.9265
463 36 3  0.1000  1.8963  7.5730 15.8728
464 36 3  0.1000  2.7780  8.9154 16.4082
465 36 2 -0.2000  0.8525  9.0027 17.4847
466 37 3  0.1000 16.4919 37.4822 16.1107
467 37 3  0.1000 18.0658 36.8829 15.5902
468 37 2 -0.2000 18.3313 38.6573 16.6701
469 20 2 -0.2000 34.8534 21.7099  6.9084
470 20 3  0.1000 36.2663 22.1365  5.2169
471 20 3  0.1000 34.8269 21.3722  4.7495
472 21 2 -0.2000 -0.1293 38.5942 30.3848
473 21 3  0.1000  2.0718 39.0776 30.2651
474 21 3  0.1000  1.5965 37.5497 29.7430
475 22 2 -0.2000 -3.5245 34.8174 16.6036
476 22 3  0.1000 -1.5327 35.2481 15.3530
477 22 3  0.1000 -1.4836 34.6351 17.0540
478 23 2 -0.2000 27.1860 10.2421 16.6515
479 23 3  0.1000 28.4609 11.2093 15.0532
480 23 3  0.1000 26.9404 10.6379 14.7172
481 24 2 -0.2000 32.4951 12.8788 11.5079
482 24 3  0.1000 33.6526 14.3387 12.9035
483 24 3  0.1000 34.1796 14.2161 11.2248
484 25 2 -0.2000 20.4895 10.7177  7.9876
485 25 3  0.1000 18.5725  9.6089  8.2913
486 25 3  0.1000 19.6367  8.9696  7.1549
487 26 2 -0.2000 16.9538 19.4008 21.1443
488 26 3  0.1000 17.4775 20.3257 19.3306
489 26 3  0.1000 16.0330 19.4388 19.1078
490 27 2 -0.2000 12.4480  7.1251 23.2546
491 27 3  0.1000 13.1559  9.0286 22.6324
492 27 3  0.1000 12.2638  8.9173 24.2001
493 28 2 -0.2000 19.9869  5.5589 31.6412
494 28 3  0.1000 19.4321  6.2785 33.6292
495 28 3  0.1000 21.2533  6.3941 33.2981
496 29 2 -0.2000 12.6299 21.2550 26.7356
497 29 3  0.1000 14.1005 21.5527 25.1687
498 29 3  0.1000 12.7862 20.6662 24.6017
499 30 2 -0.2000 28.9340  4.4050 15.6144
500 30 3  0.1000 30.5168  5.5891 16.4773
501 30 3  0.1000 31.1003  3.9684 15.7692
502 31 2 -0.2000 20.8186  4.0087 23.3952
503 31 3  0.1000 20.0201  4.6110 25.3567
504 31 3  0.1000 20.1914  3.0294 25.0375
505 32 2 -0.2000 10.0931 17.0778 23.6244
506 32 3  0.1000  8.5405 15.7194 24.1388
507 32 3  0.1000  9.2291 15.4293 22.4699
508 33 2 -0.2000 16.7916 17.0897 35.7789
509 33 3  0.1000 16.3143 15.9819 33.8190
510 33 3  0.1000 17.9753 16.1216 34.4075
511 34 2 -0.2000 37.3613 28.7067 25.6518
512 34 3  0.1000 37.3187 30.1068 23.9392
513 34 3  0.1000 38.1442 28.5709 23.5970
514 35 2 -0.2000 11.5035 28.4384 11.6477
515 35 3  0.1000 11.0578 26.5280 12.7043
516 35 3  0.1000 12.3776 27.5218 13.3907
517 36 2 -0.2000  1.1243 10.1666 18.4430
518 36 3  0.1000  0.0923  8.2955 17.8436
519 36 3  0.1000  0.3037  9.4139 16.6239
520 37 2 -0.2000 19.8125 38.7340 16.6999
521 37 3  0.1000 17.9475 39.3238 17.4526
522 37 3  0.1000 18.0384 39.2665 15.7186
523 20 2 -0.2000 35.9282 22.1901  7.8096
524 20 3  0.1000 34.5565 20.5975  7.0595
525 20 3  0.1000 33.9411 22.2355  7.2487
526 21 2 -0.2000  0.0515 37.9209 31.7622
527 21 3  0.1000 -0.8458 37.9558 29.6604
528 21 3  0.1000 -0.5692 39.6599 30.5539
529 22 2 -0.2000 -3.6868 34.4471 18.0273
530 22 3  0.1000 -4.4248 34.5045 16.1066
531 22 3  0.1000 -3.5882 35.9604 16.5497
532 23 2 -0.2000 27.0886 10.8267 18.0755
533 23 3  0.1000 27.6269  9.2704 16.5844
534 23 3  0.1000 26.1524  9.9293 16.4100
535 24 2 -0.2000 33.5760 11.7975 11.7952
536 24 3  0.1000 31.9024 12.9077 10.5821
537 24 3  0.1000 31.6729 12.7496 12.3128
538 25 2 -0.2000 19.4595 11.8954  8.3443
539 25 3  0.1000 20.8004 10.8988  6.8723
540 25 3  0.1000 21.2795 10.5474  8.6181
541 26 2 -0.2000 16.0111 18.3155 21.7499
542 26 3  0.1000 17.4679 19.9965 21.9188
543 26 3  0.1000 17.8548 18.7332 20.8522
544 27 2 -0.2000 11.9848  7.1718 21.8376
545 27 3  0.1000 11.7516  6.8965 24.1711
546 27 3  0.1000 13.2974  6.4178 23.4248
547 28 2 -0.2000 20.8609  4.3606 31.5284
548 28 3  0.1000 19.8673  6.0573 30.6590
549 28 3  0.1000 19.0105  5.1420 31.8720
550 29 2 -0.2000 13.3865 20.0282 27.3984
551 29 3  0.1000 11.5821 21.3711 27.0409
552 29 3  0.1000 13.0535 22.2063 27.3162
553 30 2 -0.2000 28.5935  3.8940 17.0004
554 30 3  0.1000 28.5759  3.7660 14.8061
555 30 3  0.1000 28.4106  5.3289 15.4261
556 31 2 -0.2000 19.7662  4.8360 22.6854
557 31 3  0.1000 21.2548  3.1013 22.8392
558 31 3  0.1000 21.6427  4.5876 23.2431
559 32 2 -0.2000 11.0323 17.4014 22.4027
560 32 3  0.1000 10.5031 17.2653 24.5931
561 32 3  0.1000  9.1238 17.7110 23.6684
562 33 2 -0.2000 15.6866 18.0584 35.6298
563 33 3  0.1000 17.7946 17.4189 36.2045
564 33 3  0.1000 16.4871 16.5453 36.6196
565 34 2 -0.2000 37.7188 29.9132 26.5207
566 34 3  0.1000 37.8542 27.7676 26.0377
567 34 3  0.1000 36.3529 28.4557 25.9618
568 35 2 -0.2000 10.9990 27.3558 10.6634
569 35 3  0.1000 12.4413 28.9194 11.4605
570 35 3  0.1000 10.7923 29.1927 11.6341
571 36 2 -0.2000  0.2481 11.4012 18.3598
572 36 3  0.1000  2.2071 10.2987 18.3325
573 36 3  0.1000  0.9774  9.7653 19.4749
574 37 2 -0.2000 20.3783 38.0845 15.5129
575 37 3  0.1000 20.2400 38.2275 17.5700
576 37 3  0.1000 20.0367 39.8607 16.6915
577 20 2 -0.2000 36.0750 20.9216  8.6570
578 20 3  0.1000 35.8263 23.2623  8.3002
579 20 3  0.1000 36.8579 22.2153  7.1428
580 21 2 -0.2000  0.0890 36.4311 31.6504
581 21 3  0.1000 -0.8192 38.2687 32.3030
582 21 3  0.1000  0.9128 38.2774 32.2929
583 22 2 -0.2000 -4.0534 35.8356 18.5823
584 22 3  0.1000 -2.7002 33.9426 18.4166
585 22 3  0.1000 -4.4616 33.7211 18.2266
586 23 2 -0.2000 26.1153 10.0526 18.8630
587 23 3  0.1000 27.1166 11.9333 17.9749
588 23 3  0.1000 28.0020 10.6151 18.6385
589 24 2 -0.2000 34.7022 11.9559 10.7880
590 24 3  0.1000 33.3619 10.6805 11.9469
591 24 3  0.1000 34.0797 11.9930 12.7626
592 25 2 -0.2000 18.8736 12.5835  7.1413
593 25 3  0.1000 19.7899 12.6411  8.9934
594 25 3  0.1000 18.6757 11.4050  8.9372
595 26 2 -0.2000 16.5810 17.7554 23.0555
596 26 3  0.1000 15.7245 17.6261 20.9155
597 26 3  0.1000 15.0574 18.8182 21.9979
598 27 2 -0.2000 11.5127  5.8269 21.3021
599 27 3  0.1000 12.5390  7.8129 21.1149
600 27 3  0.1000 11.0998  7.7894 21.8520
601 28 2 -0.2000 22.1786  4.7671 31.0150
602 28 3  0.1000 20.5049  3.5083 30.9520
603 28 3  0.1000 21.0010  3.9604 32.5694
604 29 2 -0.2000 13.5252 20.1484 28.9297
605 29 3  0.1000 14.3053 19.7561 26.7742
606 29 3  0.1000 12.7165 19.1602 27.2053
607 30 2 -0.2000 27.1649  4.1398 17.4504
608 30 3  0.1000 29.5285  4.2054 17.5884
609 30 3  0.1000 28.7034  2.8020 17.0379
610 31 2 -0.2000 18.7926  4.2333 21.6403
611 31 3  0.1000 20.2161  5.8141 22.2543
612 31 3  0.1000 19.1035  5.1750 23.5082
613 32 2 -0.2000 10.5551 17.3703 20.9552
614 32 3  0.1000 11.9791 16.9322 22.7034
615 32 3  0.1000 11.3176 18.4579 22.5495
616 33 2 -0.2000 14.3876 17.2892 35.3857
617 33 3  0.1000 15.8899 18.9688 34.9464
618 33 3  0.1000 15.4236 18.4225 36.6891
619 34 2 -0.2000 39.1740 29.8923 26.9290
620 34 3  0.1000 37.0231 30.0357 27.2903
621 34 3  0.1000 37.6097 30.8292 25.8552
622 35 2 -0.2000  9.4747 27.1439 10.7070
623 35 3  0.1000 11.6074 26.4529 10.6854
624 35 3  0.1000 11.2272 27.5049  9.5739
625 36 2 -0.2000 -0.7642 11.3774 17.2714
626 36 3  0.1000  0.6578 12.3529 18.7523
627 36 3  0.1000 -0.4003 11.1767 19.2952
628 37 2 -0.2000 21.8766 38.1923 15.3185
629 37 3  0.1000 19.9248 38.4431 14.5544
630 37 3  0.1000 20.1170 37.0354 15.5604
631 20 2 -0.2000 36.9141 21.1229  9.8156
632 20 3  0.1000 36.2024 20.0150  8.1398
633 20 3  0.1000 35.0293 20.7018  9.1717
634 21 2 -0.2000 -1.3776 35.9701 31.6663
635 21 3  0.1000  0.6685 35.9205 32.4881
636 21 3  0.1000  0.5782 36.0965 30.7111
637 22 2 -0.2000 -4.1726 36.0380 20.0474
638 22 3  0.1000 -4.8103 36.3868 17.9915
639 22 3  0.1000 -3.1836 36.3156 18.3710
640 23 2 -0.2000 24.8671 11.0320 19.0642
641 23 3  0.1000 26.6599  9.8996 19.7829
642 23 3  0.1000 25.7643  9.0801 18.2896
643 24 2 -0.2000 35.7836 10.8529 11.1252
644 24 3  0.1000 35.2318 12.8850 10.7292
645 24 3  0.1000 34.1546 11.7532  9.8433
646 25 2 -0.2000 17.3503 12.8644  7.5319
647 25 3  0.1000 18.9839 11.9719  6.2758
648 25 3  0.1000 19.3959 13.6384  6.9084
649 26 2 -0.2000 18.0474 18.1848 23.4689
650 26 3  0.1000 16.4886 16.6450 23.1556
651 26 3  0.1000 15.9151 18.1220 23.7862
652 27 2 -0.2000 10.9861  6.1760 19.9687
653 27 3  0.1000 10.9690  5.2021 22.0296
654 27 3  0.1000 12.4211  5.2309 21.1450
655 28 2 -0.2000 22.6261  4.5091 29.6326
656 28 3  0.1000 22.9972  4.5561 31.7126
657 28 3  0.1000 22.1367  5.9332 31.1194
658 29 2 -0.2000 14.6374 21.1682 29.0478
659 29 3  0.1000 13.5855 19.1041 29.4811
660 29 3  0.1000 12.5651 20.5658 29.2753
661 30 2 -0.2000 26.1232  4.3663 16.2598
662 30 3  0.1000 27.1411  4.8294 18.3233
663 30 3  0.1000 26.8347  3.2044 17.8983
664 31 2 -0.2000 17.6040  5.0819 21.4812
665 31 3  0.1000 18.6905  3.1588 21.9512
666 31 3  0.1000 19.1623  4.3282 20.6573
667 32 2 -0.2000 11.7819 17.8360 20.1655
668 32 3  0.1000  9.5449 17.8436 20.7314
669 32 3  0.1000 10.3784 16.2773 20.6893
670 33 2 -0.2000 13.2210 17.7545 36.2961
671 33 3  0.1000 14.4998 16.1882 35.3405
672 33 3  0.1000 14.0320 17.4917 34.3872
673 34 2 -0.2000 39.9798 30.3105 25.7613
674 34 3  0.1000 39.5928 28.9510 27.3487
675 34 3  0.1000 39.3457 30.6220 27.7082
676 35 2 -0.2000  9.2332 25.7170 11.0254
677 35 3  0.1000  8.9662 27.6222  9.8421
678 35 3  0.1000  8.9610 27.7180 11.4938
679 36 2 -0.2000 -1.8044 12.5187 17.4396
680 36 3  0.1000 -1.2857 10.4024 17.1132
681 36 3  0.1000 -0.1500 11.6796 16.3697
682 37 2 -0.2000 22.5409 39.2547 16.2893
683 37 3  0.1000 22.3008 38.4535 14.2876
684 37 3  0.1000 22.2375 37.1619 15.6242
685 20 2 -0.2000 38.2499 20.4833  9.9250
686 20 3  0.1000 36.3241 21.0296 10.8142
687 20 3  0.1000 37.2017 22.2105  9.8728
688 21 2 -0.2000 -1.4000 35.1931 30.3812
689 21 3  0.1000 -2.0429 36.7279 31.7469
690 21 3  0.1000 -1.5476 35.2840 32.5226
691 22 2 -0.2000 -2.8499 36.5873 20.7825
692 22 3  0.1000 -4.5130 34.9966 20.3260
693 22 3  0.1000 -5.0179 36.7897 20.2745
694 23 2 -0.2000 23.7824 11.0208 18.0075
695 23 3  0.1000 25.1788 12.0493 19.5328
696 23 3  0.1000 24.4196 10.6012 20.0048
697 24 2 -0.2000 36.4994 10.3855  9.8672
698 24 3  0.1000 35.5556 10.1418 11.8963
699 24 3  0.1000 36.5778 11.4349 11.5862
700 25 2 -0.2000 16.7359 12.9136  6.0687
701 25 3  0.1000 17.3261 13.8029  8.1191
702 25 3  0.1000 17.0757 12.0330  8.0744
703 26 2 -0.2000 18.8561 16.8729 23.7422
704 26 3  0.1000 17.9570 18.9134 24.3238
705 26 3  0.1000 18.5446 18.7104 22.6033
706 27 2 -0.2000  9.7296  5.2578 19.4050
707 27 3  0.1000 11.8057  6.1052 19.2819
708 27 3  0.1000 10.6919  7.2337 19.9576
709 28 2 -0.2000 24.0568  3.8484 29.3976
710 28 3  0.1000 22.3743  5.3750 28.9611
711 28 3  0.1000 21.9566  3.8014 29.2511
712 29 2 -0.2000 15.7548 20.8231 30.0453
713 29 3  0.1000 14.3347 22.2274 29.1582