LAMMPS DATA FILE

4032 atoms 
 4014 bonds 
 7992 angles 
 11826 dihedrals 
 0 impropers 

 3 atom types 
 4 bond types 
 7 angle types 
 8 dihedral types 
 0 improper types 

0.00000  40.0000  xlo xhi
0.00000  40.0000  ylo yhi
0.00000  40.0000  zlo zhi

Masses

1  12.01115 
2  12.01115 
3  1.00797 

Pair Coeffs

1  0.038999995200   3.875409
2  0.038999995200   3.875409
3  0.038000001100   2.449971

Bond Coeffs

1 322.715800 1.526000 
2 340.617500 1.105000 
3 322.715800 1.526000 
4 340.617500 1.105000 

Angle Coeffs

1 46.600000 110.500000 
2 46.600000 110.500000 
3 44.400000 110.000000 
4 39.500000 106.400000 
5 44.400000 110.000000 
6 44.400000 110.000000 
7 39.500000 106.400000 

Dihedral Coeffs

1 0.158100 1 3 
2 0.158100 1 3 
3 0.158100 1 3 
4 0.158100 1 3 
5 0.158100 1 3 
6 0.158100 1 3 
7 0.158100 1 3 
8 0.158100 1 3 

Atoms

1 20 1 -0.3000 39.8913 19.5937 17.3869
2 20 2 -0.2000 39.0793 20.1331 16.2295
3 20 3  0.1000 39.5287 20.1769 18.2649
4 20 3  0.1000 40.9142 19.8016 17.3190
5 20 3  0.1000 39.7601 18.4589 17.4188
6 20 2 -0.2000 37.5458 20.3309 16.4295
7 20 3  0.1000 39.3366 19.5577 15.2397
8 20 3  0.1000 39.4588 21.1094 16.1471
9 20 2 -0.2000 36.7334 19.0730 16.4348
10 20 3  0.1000 37.2879 20.9770 15.5764
11 20 3  0.1000 37.3381 20.8575 17.4164
12 21 1 -0.3000  5.3984  1.1403 32.6963
13 21 2 -0.2000  5.7831  1.9448 33.9603
14 21 3  0.1000  5.9438  0.1155 32.5655
15 21 3  0.1000  5.6522  1.6679 31.7396
16 21 3  0.1000  4.3674  1.0917 32.8006
17 21 2 -0.2000  4.5025  2.3139 34.6459
18 21 3  0.1000  6.5172  2.7229 33.7337
19 21 3  0.1000  6.2545  1.2604 34.5953
20 21 2 -0.2000  4.6090  3.6414 35.4406
21 21 3  0.1000  4.1650  1.5422 35.3279
22 21 3  0.1000  3.6386  2.4480 33.8960
23 22 1 -0.3000  8.7984 10.7968 31.5130
24 22 2 -0.2000  7.4923 11.1128 30.8446
25 22 3  0.1000  8.8908 11.4919 32.4262
26 22 3  0.1000  9.6141 11.1128 30.8321
27 22 3  0.1000  8.7219  9.8240 31.8741
28 22 2 -0.2000  7.3333 10.2735 29.4887
29 22 3  0.1000  7.3685 12.1685 30.6256
30 22 3  0.1000  6.6181 10.8722 31.4797
31 22 2 -0.2000  7.5821  8.7428 29.6467
32 22 3  0.1000  7.7327 10.7897 28.6300
33 22 3  0.1000  6.1523 10.2695 29.3595
34 23 1 -0.3000 14.5654 26.4059  4.2581
35 23 2 -0.2000 14.3727 25.3194  5.3270
36 23 3  0.1000 15.3508 27.0887  4.5520
37 23 3  0.1000 13.5736 26.8737  4.1536
38 23 3  0.1000 14.8438 25.9094  3.2564
39 23 2 -0.2000 13.7972 25.9455  6.5557
40 23 3  0.1000 15.1838 24.6395  5.3946
41 23 3  0.1000 13.6451 24.6616  5.0682
42 23 2 -0.2000 12.3020 26.1174  6.7176
43 23 3  0.1000 14.4306 26.7640  6.8497
44 23 3  0.1000 13.9980 25.1895  7.3388
45 24 1 -0.3000 39.6143 36.8277 35.9341
46 24 2 -0.2000 40.3329 37.7396 34.8980
47 24 3  0.1000 39.1244 36.1062 35.2701
48 24 3  0.1000 38.7936 37.1652 36.5996
49 24 3  0.1000 40.3235 36.2353 36.5818
50 24 2 -0.2000 39.6321 37.7329 33.6612
51 24 3  0.1000 41.3533 37.3431 34.6242
52 24 3  0.1000 40.3900 38.8043 35.3641
53 24 2 -0.2000 40.2181 38.7469 32.6491
54 24 3  0.1000 38.6240 37.9691 34.0201
55 24 3  0.1000 39.6913 36.7498 33.2489
56 25 1 -0.3000 29.1911  0.3104 23.1130
57 25 2 -0.2000 30.5494 -0.2039 22.5792
58 25 3  0.1000 29.4379  1.1838 23.7002
59 25 3  0.1000 28.5747 -0.4507 23.5743
60 25 3  0.1000 28.5710  0.5798 22.3424
61 25 2 -0.2000 31.8154  0.7437 22.5215
62 25 3  0.1000 30.5111 -0.6957 21.6013
63 25 3  0.1000 30.8867 -1.0093 23.3252
64 25 2 -0.2000 32.9696  0.1025 21.8050
65 25 3  0.1000 31.9663  1.3054 23.4459
66 25 3  0.1000 31.5592  1.5563 21.9106
67 26 1 -0.3000 21.0181  9.5941 29.8981
68 26 2 -0.2000 21.7403  8.8734 28.7827
69 26 3  0.1000 21.1252 10.6361 29.9142
70 26 3  0.1000 21.2039  9.1010 30.9366
71 26 3  0.1000 19.9407  9.4472 29.7579
72 26 2 -0.2000 23.1524  9.3029 28.4941
73 26 3  0.1000 21.0594  8.8006 27.9499
74 26 3  0.1000 21.6317  7.7956 29.1475
75 26 2 -0.2000 23.5746 10.0468 27.2248
76 26 3  0.1000 23.9345  8.6078 28.8373
77 26 3  0.1000 23.2564 10.0800 29.3235
78 27 1 -0.3000 30.2733 30.5090 29.4984
79 27 2 -0.2000 28.9433 29.9510 29.9614
80 27 3  0.1000 30.7563 31.0671 30.2806
81 27 3  0.1000 30.0029 31.1574 28.6814
82 27 3  0.1000 30.9683 29.7246 29.2795
83 27 2 -0.2000 28.9727 28.9687 31.0776
84 27 3  0.1000 28.2815 29.6975 29.1776
85 27 3  0.1000 28.3450 30.8149 30.4401
86 27 2 -0.2000 28.9286 29.4989 32.5414
87 27 3  0.1000 29.8992 28.2704 31.0770
88 27 3  0.1000 28.1665 28.2310 30.8979
89 28 1 -0.3000 16.3736  2.0055 27.5132
90 28 2 -0.2000 17.1088  0.9452 28.3303
91 28 3  0.1000 16.3869  1.6697 26.4672
92 28 3  0.1000 16.7736  2.9653 27.6597
93 28 3  0.1000 15.3425  2.0996 27.8085
94 28 2 -0.2000 16.1611 -0.1364 28.6672
95 28 3  0.1000 17.5016  1.3772 29.3327
96 28 3  0.1000 17.9995  0.5446 27.8275
97 28 2 -0.2000 16.4647 -1.4080 27.8700
98 28 3  0.1000 15.0838  0.0537 28.5162
99 28 3  0.1000 16.2112 -0.4193 29.7132
100 29 1 -0.3000 16.4486 15.6872 17.0411
101 29 2 -0.2000 16.2262 14.2179 17.5709
102 29 3  0.1000 17.3570 15.7829 16.6320
103 29 3  0.1000 16.3723 16.4949 17.7866
104 29 3  0.1000 15.7204 16.0797 16.2597
105 29 2 -0.2000 16.6585 13.9757 19.0423
106 29 3  0.1000 16.4004 13.2923 16.9132
107 29 3  0.1000 15.1397 14.1430 17.6488
108 29 2 -0.2000 17.9327 13.2827 19.2008
109 29 3  0.1000 15.8517 13.4944 19.6493
110 29 3  0.1000 16.9326 14.9074 19.6011
111 30 1 -0.3000 12.1905 23.9375 25.9277
112 30 2 -0.2000 11.5649 25.2055 26.5318
113 30 3  0.1000 12.1300 24.0555 24.8697
114 30 3  0.1000 11.7210 23.0758 26.3863
115 30 3  0.1000 13.2445 23.8272 26.2052
116 30 2 -0.2000 10.5031 25.9187 25.8296
117 30 3  0.1000 12.2758 25.9130 26.8195
118 30 3  0.1000 11.0520 24.8078 27.4536
119 30 2 -0.2000 10.7539 26.5057 24.4140
120 30 3  0.1000 10.0670 26.7099 26.4194
121 30 3  0.1000  9.7237 25.1906 25.7024
122 31 1 -0.3000 22.3233  0.0434 38.0953
123 31 2 -0.2000 22.0188 -0.7269 36.7517
124 31 3  0.1000 22.8809  0.8667 37.8627
125 31 3  0.1000 22.6318 -0.4452 39.0026
126 31 3  0.1000 21.3552  0.4485 38.4927
127 31 2 -0.2000 23.3563 -1.2568 36.0295
128 31 3  0.1000 21.5841 -0.0942 36.0231
129 31 3  0.1000 21.4037 -1.4870 36.9697
130 31 2 -0.2000 23.3015 -2.2007 34.8963
131 31 3  0.1000 24.1140 -1.5034 36.7898
132 31 3  0.1000 23.8453 -0.3685 35.5000
133 32 1 -0.3000 20.2311 25.4351 24.2714
134 32 2 -0.2000 20.1069 25.9894 25.6858
135 32 3  0.1000 21.1455 25.6954 23.8105
136 32 3  0.1000 19.4288 25.7229 23.5622
137 32 3  0.1000 20.3041 24.3723 24.2771
138 32 2 -0.2000 21.3511 25.6424 26.5285
139 32 3  0.1000 19.1262 25.8006 26.1933
140 32 3  0.1000 20.0506 27.1323 25.4573
141 32 2 -0.2000 21.2086 25.0450 27.9391
142 32 3  0.1000 22.0730 26.5404 26.5393
143 32 3  0.1000 21.9350 24.8745 26.0634
144 33 1 -0.3000 20.5099 29.9953  8.9415
145 33 2 -0.2000 19.6272 28.7892  8.5949
146 33 3  0.1000 19.9553 30.9336  9.2162
147 33 3  0.1000 21.2653 30.2613  8.1966
148 33 3  0.1000 20.9423 29.7443  9.9465
149 33 2 -0.2000 18.9183 28.9280  7.2322
150 33 3  0.1000 18.8774 28.6484  9.3005
151 33 3  0.1000 20.1478 27.9326  8.6925
152 33 2 -0.2000 19.6637 29.6472  6.0848
153 33 3  0.1000 17.9284 29.4396  7.2727
154 33 3  0.1000 18.6139 27.9509  6.8697
155 34 1 -0.3000  6.7476 11.5873 19.4037
156 34 2 -0.2000  6.5672 10.0451 19.5992
157 34 3  0.1000  6.2940 11.8834 18.3942
158 34 3  0.1000  7.8343 12.0472 19.5318
159 34 3  0.1000  5.9995 12.0683 20.0931
160 34 2 -0.2000  5.6732  9.6676 20.8020
161 34 3  0.1000  7.5774  9.5062 19.6550
162 34 3  0.1000  6.1188  9.6886 18.6425
163 34 2 -0.2000  5.4815  8.1253 20.9361
164 34 3  0.1000  4.8305 10.1708 21.0518
165 34 3  0.1000  6.2115  9.9980 21.6835
166 35 1 -0.3000 24.2173 11.1404 39.1843
167 35 2 -0.2000 24.4475 12.4513 38.5647
168 35 3  0.1000 25.0682 10.6141 39.2653
169 35 3  0.1000 23.3242 10.5767 38.8125
170 35 3  0.1000 23.9906 11.4178 40.2802
171 35 2 -0.2000 25.4317 13.2684 39.1697
172 35 3  0.1000 23.6536 12.8737 38.0925
173 35 3  0.1000 25.0189 12.1600 37.6770
174 35 2 -0.2000 24.8796 14.5515 39.8585
175 35 3  0.1000 26.3090 13.4388 38.6025
176 35 3  0.1000 25.8029 12.6908 40.0056
177 36 1 -0.3000 29.7144 39.5352 30.2320
178 36 2 -0.2000 28.5201 39.7679 29.3120
179 36 3  0.1000 29.6399 38.7794 31.0523
180 36 3  0.1000 29.9355 40.4463 30.7780
181 36 3  0.1000 30.5329 39.1418 29.5752
182 36 2 -0.2000 27.6835 40.6758 30.2824
183 36 3  0.1000 27.9852 38.8645 28.9643
184 36 3  0.1000 28.7296 40.4513 28.5077
185 36 2 -0.2000 26.2075 40.3503 30.0557
186 36 3  0.1000 27.5739 41.6876 29.9816
187 36 3  0.1000 27.9811 40.6590 31.3011
188 37 1 -0.3000 12.8153 30.5904 21.9163
189 37 2 -0.2000 12.0282 29.3801 22.2112
190 37 3  0.1000 13.7011 30.8734 22.6156
191 37 3  0.1000 12.1622 31.4641 21.7539
192 37 3  0.1000 13.3229 30.4670 20.9112
193 37 2 -0.2000 10.5318 29.5050 21.8294
194 37 3  0.1000 12.2280 28.8261 23.1893
195 37 3  0.1000 12.5087 28.6193 21.5077
196 37 2 -0.2000 10.4275 29.3662 20.3281
197 37 3  0.1000  9.8437 30.3068 22.2647
198 37 3  0.1000 10.0451 28.5607 22.1283
199 20 2 -0.2000 35.1955 19.2463 16.6358
200 20 3  0.1000 37.2066 18.1114 16.9636
201 20 3  0.1000 36.7582 18.7428 15.3822
202 21 2 -0.2000  3.4536  4.4551 34.8835
203 21 3  0.1000  5.6424  4.0901 35.5202
204 21 3  0.1000  4.3117  3.2903 36.4385
205 22 2 -0.2000  9.0147  8.3087 29.3992
206 22 3  0.1000  6.8581  7.9138 29.2865
207 22 3  0.1000  7.5440  8.6789 30.7386
208 23 2 -0.2000 11.7138 26.5570  7.9964
209 23 3  0.1000 11.9549 25.1197  6.4179
210 23 3  0.1000 12.0130 26.8228  5.9380
211 24 2 -0.2000 39.4583 39.7347 31.7491
212 24 3  0.1000 41.1440 38.3776 32.0617
213 24 3  0.1000 40.6905 39.4683 33.3743
214 25 2 -0.2000 34.3396  0.4958 22.3280
215 25 3  0.1000 32.8551  0.1489 20.7247
216 25 3  0.1000 32.7995 -0.9798 22.0838
217 26 2 -0.2000 22.9843 11.4543 27.2862
218 26 3  0.1000 23.7127  9.5949 26.3014
219 26 3  0.1000 24.6273 10.1753 27.4590
220 27 2 -0.2000 29.6252 28.4891 33.3789
221 27 3  0.1000 27.9261 29.9087 32.9025
222 27 3  0.1000 29.5516 30.3364 32.5768
223 28 2 -0.2000 15.8058 -2.5394 28.5794
224 28 3  0.1000 17.5781 -1.3930 27.7197
225 28 3  0.1000 15.9461 -1.3609 26.8923
226 29 2 -0.2000 18.9689 14.4141 19.5819
227 29 3  0.1000 18.2186 12.5676 18.4640
228 29 3  0.1000 17.7693 12.6083 20.0588
229 30 2 -0.2000 10.2393 25.5699 23.2428
230 30 3  0.1000 11.7724 26.9468 24.3622
231 30 3  0.1000 10.1266 27.4473 24.4967
232 31 2 -0.2000 23.7990 -1.6888 33.5746
233 31 3  0.1000 22.3106 -2.7594 34.8534
234 31 3  0.1000 24.0444 -3.0705 35.1789
235 32 2 -0.2000 21.9833 25.6224 29.0411
236 32 3  0.1000 21.0878 23.9567 27.8713
237 32 3  0.1000 20.1997 25.4093 28.1740
238 33 2 -0.2000 19.9341 28.4957  5.1584
239 33 3  0.1000 20.5804 30.1803  6.3671
240 33 3  0.1000 18.9006 30.3313  5.5687
241 34 2 -0.2000  6.2870  7.4137 21.9576
242 34 3  0.1000  5.3647  7.6044 19.9371
243 34 3  0.1000  4.3961  8.1217 21.3056
244 35 2 -0.2000 25.7617 15.8694 39.7571
245 35 3  0.1000 24.5872 14.3375 40.8249
246 35 3  0.1000 23.9107 14.7749 39.2552
247 36 2 -0.2000 25.7280 40.5780 28.6816
248 36 3  0.1000 25.4885 40.7125 30.8339
249 36 3  0.1000 26.0710 39.2377 30.1905
250 37 2 -0.2000  9.7291 30.5260 19.5716
251 37 3  0.1000 10.0050 28.3549 20.0431
252 37 3  0.1000 11.4320 29.3285 19.9998
253 20 2 -0.2000 34.6912 19.5600 18.0262
254 20 3  0.1000 34.6752 18.5347 16.0033
255 20 3  0.1000 34.9712 20.1171 16.1026
256 21 2 -0.2000  3.1633  5.7907 35.6716
257 21 3  0.1000  2.4681  4.0176 34.7162
258 21 3  0.1000  3.5470  4.7449 33.8550
259 22 2 -0.2000  9.2862  6.7804 29.6428
260 22 3  0.1000  9.7304  8.9894 29.8489
261 22 3  0.1000  9.1902  8.4156 28.4116
262 23 2 -0.2000 10.7246 25.4629  8.3790
263 23 3  0.1000 11.2788 27.5654  8.1803
264 23 3  0.1000 12.5156 26.5246  8.7122
265 24 2 -0.2000 40.2251 39.7503 30.3304
266 24 3  0.1000 39.5714 40.6898 32.1960
267 24 3  0.1000 38.3591 39.5087 31.6519
268 25 2 -0.2000 35.0604  1.5261 21.5504
269 25 3  0.1000 34.9162 -0.4494 22.6459
270 25 3  0.1000 34.1236  0.9898 23.3428
271 26 2 -0.2000 23.8585 12.3118 28.2337
272 26 3  0.1000 21.8940 11.5230 27.3343
273 26 3  0.1000 23.2212 11.8123 26.2524
274 27 2 -0.2000 31.1880 28.6634 33.1991
275 27 3  0.1000 29.1321 27.5010 33.3574
276 27 3  0.1000 29.4648 28.8733 34.3968
277 28 2 -0.2000 16.9031 -3.3241 29.2524
278 28 3  0.1000 15.0374 -3.0408 28.0202
279 28 3  0.1000 15.2887 -2.2478 29.4811
280 29 2 -0.2000 19.1726 14.2388 21.1073
281 29 3  0.1000 18.9200 15.4622 19.2681
282 29 3  0.1000 19.9462 14.1053 19.0918
283 30 2 -0.2000 11.2916 25.6637 22.1370
284 30 3  0.1000  9.1999 25.7599 22.9858
285 30 3  0.1000 10.3548 24.4193 23.4397
286 31 2 -0.2000 22.6452 -0.9905 32.7496
287 31 3  0.1000 24.4470 -2.4397 32.9283
288 31 3  0.1000 24.4943 -1.0262 33.9177
289 32 2 -0.2000 21.0481 26.6842 29.6107
290 32 3  0.1000 22.9387 26.1286 28.6995
291 32 3  0.1000 22.1106 24.8098 29.8459
292 33 2 -0.2000 20.8642 29.0601  4.0387
293 33 3  0.1000 18.9843 28.0751  4.7668
294 33 3  0.1000 20.4538 27.6686  5.7595
295 34 2 -0.2000  6.0495  7.6310 23.4692
296 34 3  0.1000  7.3181  7.3050 21.5579
297 34 3  0.1000  5.9458  6.4926 21.9182
298 35 2 -0.2000 26.8926 15.6616 40.8342
299 35 3  0.1000 25.3503 16.8753 39.7741
300 35 3  0.1000 26.3409 15.7884 38.7348
301 36 2 -0.2000 25.2718 41.9865 28.7770
302 36 3  0.1000 24.8620 39.9581 28.3149
303 36 3  0.1000 26.5858 40.4263 27.9921
304 37 2 -0.2000  9.4497 30.0301 18.1867
305 37 3  0.1000 10.2999 31.4678 19.6818
306 37 3  0.1000  8.8813 30.6546 20.1088
307 20 2 -0.2000 34.0481 18.3794 18.8504
308 20 3  0.1000 34.0690 20.4255 18.1825
309 20 3  0.1000 35.5634 19.7193 18.5937
310 21 2 -0.2000  2.6900  5.6055 37.0903
311 21 3  0.1000  2.7986  6.6152 34.9380
312 21 3  0.1000  4.1937  6.1490 35.8005
313 22 2 -0.2000  8.4629  6.0930 28.6234
314 22 3  0.1000  9.2183  6.4499 30.6856
315 22 3  0.1000 10.3303  6.6025 29.4571
316 23 2 -0.2000 11.0976 24.0317  8.5624
317 23 3  0.1000  9.6987 25.5827  7.9976
318 23 3  0.1000 10.5275 25.6961  9.4090
319 24 2 -0.2000 40.8605 41.1632 30.0823
320 24 3  0.1000 39.7572 39.2250 29.4337
321 24 3  0.1000 40.9993 39.0617 30.4604
322 25 2 -0.2000 34.6050  2.0347 20.1187
323 25 3  0.1000 36.2058  1.5260 21.6649
324 25 3  0.1000 34.9118  2.4532 22.1480
325 26 2 -0.2000 24.9910 12.6943 27.4056
326 26 3  0.1000 24.2047 11.7531 29.1329
327 26 3  0.1000 23.2461 13.2071 28.6466
328 27 2 -0.2000 32.0879 29.4480 34.2709
329 27 3  0.1000 31.3530 28.8973 32.1538
330 27 3  0.1000 31.5627 27.6567 33.2952
331 28 2 -0.2000 16.2352 -4.3449 30.0582
332 28 3  0.1000 17.8006 -2.7317 29.5375
333 28 3  0.1000 17.3982 -3.8429 28.4460
334 29 2 -0.2000 19.1544 15.7336 21.5861
335 29 3  0.1000 20.1689 13.8340 21.3078
336 29 3  0.1000 18.3021 13.5681 21.4497
337 30 2 -0.2000 11.4094 24.2773 21.5012
338 30 3  0.1000 12.3271 25.8002 22.6293
339 30 3  0.1000 11.1120 26.5190 21.4610
340 31 2 -0.2000 22.6934 -1.1470 31.2696
341 31 3  0.1000 22.3927 -0.1050 33.2488
342 31 3  0.1000 21.6638 -1.5420 32.9058
343 32 2 -0.2000 21.6236 27.1313 30.8439
344 32 3  0.1000 19.9855 26.4083 29.6194
345 32 3  0.1000 20.9819 27.5418 28.8264
346 33 2 -0.2000 20.3357 29.0424  2.5977
347 33 3  0.1000 21.8694 28.5424  4.2229
348 33 3  0.1000 21.1855 30.0876  4.2034
349 34 2 -0.2000  7.0667  8.6633 23.9342
350 34 3  0.1000  6.1573  6.7566 24.0871
351 34 3  0.1000  5.0691  7.9466 23.6271
352 35 2 -0.2000 27.0934 16.9829 41.6343
353 35 3  0.1000 27.8123 15.3901 40.3790
354 35 3  0.1000 26.5192 14.8073 41.4088
355 36 2 -0.2000 25.4682 42.6458 27.4104
356 36 3  0.1000 25.6061 42.7191 29.5092
357 36 3  0.1000 24.2351 41.9440 28.9780
358 37 2 -0.2000 10.6786 29.7825 17.3623
359 37 3  0.1000  8.6417 30.5242 17.6161
360 37 3  0.1000  9.0883 29.0475 18.4733
361 20 2 -0.2000 34.2170 18.7731 20.3775
362 20 3  0.1000 34.4982 17.3651 18.7269
363 20 3  0.1000 32.9630 18.2275 18.7085
364 21 2 -0.2000  1.2264  5.6781 37.4186
365 21 3  0.1000  3.2450  6.1436 37.8336
366 21 3  0.1000  2.9446  4.5320 37.2966
367 22 2 -0.2000  9.2811  5.0174 27.7824
368 22 3  0.1000  8.0641  6.7523 27.9365
369 22 3  0.1000  7.5454  5.6645 29.1429
370 23 2 -0.2000 10.1749 23.0377  9.3513
371 23 3  0.1000 12.0910 23.9409  9.0127
372 23 3  0.1000 11.2971 23.6623  7.5078
373 24 2 -0.2000 41.1935 41.1137 28.6099
374 24 3  0.1000 41.6010 41.6165 30.8251
375 24 3  0.1000 40.0070 41.8042 30.0894
376 25 2 -0.2000 33.6507  3.0845 19.8990
377 25 3  0.1000 34.5701  1.2688 19.2738
378 25 3  0.1000 35.5519  2.5407 19.7845
379 26 2 -0.2000 24.5577 13.9976 26.6892
380 26 3  0.1000 25.3383 11.9283 26.6837
381 26 3  0.1000 25.8743 12.9567 28.0770
382 27 2 -0.2000 31.9800 30.9636 34.1598
383 27 3  0.1000 33.1138 29.1220 34.1813
384 27 3  0.1000 31.6211 29.2056 35.2509
385 28 2 -0.2000 15.9575 -5.4612 29.1631
386 28 3  0.1000 15.3735 -3.8435 30.4642
387 28 3  0.1000 16.8277 -4.7609 30.9327
388 29 2 -0.2000 20.6465 16.3576 21.6612
389 29 3  0.1000 18.6787 15.7113 22.5230
390 29 3  0.1000 18.5222 16.4090 20.9661
391 30 2 -0.2000 11.9979 24.4187 20.1722
392 30 3  0.1000 10.5051 23.5246 21.5135
393 30 3  0.1000 12.1233 23.7122 22.1630
394 31 2 -0.2000 21.4248 -1.7912 30.7308
395 31 3  0.1000 23.7427 -1.5339 30.9614
396 31 3  0.1000 22.7173 -0.1651 30.8125
397 32 2 -0.2000 21.9090 26.2533 32.0217
398 32 3  0.1000 21.1791 28.1499 31.0729
399 32 3  0.1000 22.6477 27.3781 30.5485
400 33 2 -0.2000 21.3554 29.0662  1.4234
401 33 3  0.1000 19.5265 29.7837  2.4722
402 33 3  0.1000 19.7946 28.0533  2.4680
403 34 2 -0.2000  6.9221  9.2926 25.3583
404 34 3  0.1000  7.2812  9.3459 23.0476
405 34 3  0.1000  7.9867  8.1021 24.0141
406 35 2 -0.2000 28.3815 17.7747 41.4006
407 35 3  0.1000 26.8923 16.8075 42.6659
408 35 3  0.1000 26.3267 17.6162 41.4960
409 36 2 -0.2000 25.1084 44.1577 27.4620
410 36 3  0.1000 24.8695 42.2034 26.6246
411 36 3  0.1000 26.4666 42.6701 26.9991
412 37 2 -0.2000 11.2164 31.1237 16.7460
413 37 3  0.1000 10.4052 29.1421 16.4462
414 37 3  0.1000 11.5285 29.2843 17.8421
415 20 3  0.1000 33.6838 17.9604 21.0195
416 20 3  0.1000 33.7033 19.6997 20.6180
417 20 2 -0.2000 35.6817 18.9108 20.6963
418 21 3  0.1000  0.9990  4.7625 38.1403
419 21 3  0.1000  0.6394  5.4258 36.4784
420 21 2 -0.2000  0.6827  7.0021 37.6864
421 22 3  0.1000  9.9279  4.3754 28.4132
422 22 3  0.1000  9.9676  5.4592 27.0675
423 22 2 -0.2000  8.3494  4.2483 26.8145
424 23 3  0.1000 10.7187 22.3722 10.0654
425 23 3  0.1000  9.7341 22.3314  8.6617
426 23 2 -0.2000  8.9787 23.8185  9.9947
427 24 3  0.1000 41.2922 42.0913 28.0990
428 24 3  0.1000 40.2905 40.6785 28.0978
429 24 2 -0.2000 42.3743 40.1832 28.2930
430 25 3  0.1000 32.7216  3.0658 20.4862
431 25 3  0.1000 33.3439  3.0133 18.8915
432 25 2 -0.2000 34.4517  4.3659 20.1566
433 26 3  0.1000 25.0225 14.9157 27.1693
434 26 3  0.1000 23.4500 14.1514 26.9244
435 26 2 -0.2000 24.6262 13.9165 25.1751
436 27 3  0.1000 31.5612 31.1771 33.1664
437 27 3  0.1000 33.0556 31.3318 34.0777
438 27 2 -0.2000 31.4038 31.7022 35.3178
439 28 3  0.1000 15.8939 -5.2356 28.1438
440 28 3  0.1000 14.9109 -5.7213 29.2727
441 28 2 -0.2000 16.6010 -6.7842 29.5407
442 29 3  0.1000 21.5069 15.6211 21.1953
443 29 3  0.1000 20.9249 16.4039 22.6953
444 29 2 -0.2000 20.6824 17.6907 20.9797
445 30 3  0.1000 12.7304 25.1882 19.8717
446 30 3  0.1000 11.2438 24.5884 19.4252
447 30 2 -0.2000 12.5887 23.0031 19.9036
448 31 3  0.1000 20.8398 -0.9985 30.1983
449 31 3  0.1000 20.8444 -2.1551 31.5984
450 31 2 -0.2000 21.7368 -2.8344 29.7668
451 32 3  0.1000 22.9328 25.9562 32.3015
452 32 3  0.1000 21.2464 25.4124 31.8994
453 32 2 -0.2000 21.1065 26.8905 33.2243
454 33 3  0.1000 22.3410 28.5630  1.7183
455 33 3  0.1000 21.5956 30.0535  1.1452
456 33 2 -0.2000 20.6548 28.3636  0.1668
457 34 3  0.1000  7.5691 10.1602 25.5331
458 34 3  0.1000  7.2371  8.5884 26.1330
459 34 2 -0.2000  5.4012  9.6075 25.5056
460 35 3  0.1000 28.5123 18.7917 41.8206
461 35 3  0.1000 28.5113 17.9516 40.3248
462 35 2 -0.2000 29.3627 16.6645 41.7279
463 36 3  0.1000 25.5238 44.7955 26.6121
464 36 3  0.1000 25.6661 44.4969 28.3024
465 36 2 -0.2000 23.5924 44.2597 27.6511
466 37 3  0.1000 10.8910 32.0291 17.3030
467 37 3  0.1000 10.7977 31.1998 15.7122
468 37 2 -0.2000 12.7117 30.7300 16.6217
469 20 2 -0.2000 36.1477 18.0527 21.8945
470 20 3  0.1000 36.0945 19.9528 20.6998
471 20 3  0.1000 36.2526 18.4084 19.8485
472 21 2 -0.2000 -0.7250  7.0256 37.1615
473 21 3  0.1000  1.2581  7.8867 37.5160
474 21 3  0.1000  0.5661  7.0587 38.7917
475 22 2 -0.2000  8.7643  4.2783 25.3604
476 22 3  0.1000  7.3296  4.3454 27.1097
477 22 3  0.1000  8.5527  3.1623 27.0414
478 23 2 -0.2000  7.8320 23.1112 10.5885
479 23 3  0.1000  8.6459 24.5566  9.1813
480 23 3  0.1000  9.4295 24.4415 10.7799
481 24 2 -0.2000 43.6147 40.4689 29.0748
482 24 3  0.1000 42.5476 39.8907 27.2785
483 24 3  0.1000 41.9569 39.1873 28.7098
484 25 2 -0.2000 33.7948  5.6903 19.8730
485 25 3  0.1000 35.5646  4.3459 19.8942
486 25 3  0.1000 34.5186  4.5298 21.2671
487 26 2 -0.2000 25.0847 15.2697 24.7436
488 26 3  0.1000 23.7867 13.6367 24.6020
489 26 3  0.1000 25.3732 13.2016 24.9397
490 27 2 -0.2000 32.4966 32.2570 36.1465
491 27 3  0.1000 30.5470 31.1819 35.8251
492 27 3  0.1000 30.9176 32.6627 34.9448
493 28 2 -0.2000 17.8442 -6.9799 28.6619
494 28 3  0.1000 16.0559 -7.6718 29.5761
495 28 3  0.1000 16.8614 -6.6445 30.5574
496 29 2 -0.2000 20.5945 18.7975 21.9474
497 29 3  0.1000 20.1211 17.7848 20.0277
498 29 3  0.1000 21.7631 17.8078 20.6671
499 30 2 -0.2000 14.1326 22.9616 19.8865
500 30 3  0.1000 12.0695 22.5767 19.0531
501 30 3  0.1000 12.2603 22.2547 20.7556
502 31 2 -0.2000 21.4909 -4.2070 30.2558
503 31 3  0.1000 22.8536 -2.5439 29.6086
504 31 3  0.1000 21.2960 -2.4618 28.8047
505 32 2 -0.2000 21.8076 27.2015 34.5477
506 32 3  0.1000 20.1714 26.3066 33.3624
507 32 3  0.1000 20.6102 27.8089 32.8959
508 33 2 -0.2000 20.8774 26.8811  0.3877
509 33 3  0.1000 20.9753 28.6347 -0.8677
510 33 3  0.1000 19.5107 28.6090  0.1831
511 34 2 -0.2000  5.3173 11.1221 25.8390
512 34 3  0.1000  4.8144  9.0108 26.1465
513 34 3  0.1000  4.9275  9.4075 24.4736
514 35 2 -0.2000 30.2346 16.9451 42.9024
515 35 3  0.1000 29.8551 16.2031 40.7663
516 35 3  0.1000 28.6904 15.8415 42.0572
517 36 2 -0.2000 23.4653 44.8146 29.1178
518 36 3  0.1000 23.0005 43.3285 27.2411
519 36 3  0.1000 23.2417 45.1474 27.0255
520 37 2 -0.2000 13.5805 31.4400 15.6716
521 37 3  0.1000 12.9541 29.6047 16.7303
522 37 3  0.1000 13.1600 31.1672 17.6455
523 20 2 -0.2000 37.5440 18.5399 22.3554
524 20 3  0.1000 36.0875 16.8896 21.7398
525 20 3  0.1000 35.3592 18.2255 22.7754
526 21 2 -0.2000 -1.4906  8.2873 37.3553
527 21 3  0.1000 -1.2673  5.9581 37.2224
528 21 3  0.1000 -0.5514  7.0523 36.0976
529 22 2 -0.2000  9.8171  3.2861 24.9727
530 22 3  0.1000  8.9436  5.2053 24.9631
531 22 3  0.1000  7.8745  3.9176 24.7997
532 23 2 -0.2000  6.5207 23.8848 10.4887
533 23 3  0.1000  8.0582 22.5830 11.5443
534 23 3  0.1000  7.7274 22.2963  9.8819
535 24 2 -0.2000 44.5186 39.2452 28.9125
536 24 3  0.1000 43.5430 40.6923 30.1353
537 24 3  0.1000 44.0386 41.4017 28.6721
538 25 2 -0.2000 34.7459  6.4925 18.9917
539 25 3  0.1000 33.4052  6.1490 20.7017
540 25 3  0.1000 32.9626  5.5682 19.2727
541 26 2 -0.2000 26.2245 15.4743 23.7573
542 26 3  0.1000 25.3799 15.9337 25.5590
543 26 3  0.1000 24.2236 15.6131 24.2685
544 27 2 -0.2000 32.4928 31.7281 37.5933
545 27 3  0.1000 32.4700 33.3900 35.9820
546 27 3  0.1000 33.5002 31.9924 35.7703
547 28 2 -0.2000 17.7279 -8.3482 27.9594
548 28 3  0.1000 18.9020 -7.0058 29.0088
549 28 3  0.1000 17.7584 -6.1800 27.8271
550 29 2 -0.2000 19.4935 19.7682 21.6567
551 29 3  0.1000 21.5977 19.2239 22.2243
552 29 3  0.1000 20.2312 18.3752 22.8149
553 30 2 -0.2000 14.6590 22.1888 18.5941
554 30 3  0.1000 14.6180 22.6496 20.7998
555 30 3  0.1000 14.4728 23.9463 19.7467
556 31 2 -0.2000 22.6927 -5.2328 30.0273
557 31 3  0.1000 20.5758 -4.8349 30.0046
558 31 3  0.1000 21.4462 -4.1038 31.3661
559 32 2 -0.2000 22.6326 26.0218 35.0454
560 32 3  0.1000 21.0266 27.6111 35.1038
561 32 3  0.1000 22.5545 27.9916 34.3407
562 33 2 -0.2000 20.3167 25.9728 -0.7176
563 33 3  0.1000 20.7229 26.5799  1.4724
564 33 3  0.1000 21.9623 26.6906  0.4708
565 34 2 -0.2000  5.8764 12.2496 24.9490
566 34 3  0.1000  5.3940 11.3490 26.9469
567 34 3  0.1000  4.2375 11.3889 25.7490
568 35 2 -0.2000 31.6126 17.4109 42.6939
569 35 3  0.1000 30.1953 16.3275 43.6913
570 35 3  0.1000 29.7150 17.8632 43.3229
571 36 2 -0.2000 21.9762 44.6297 29.4841
572 36 3  0.1000 23.8398 45.8251 29.2688
573 36 3  0.1000 24.0590 44.2271 29.7600
574 37 2 -0.2000 13.4519 32.8943 15.7313
575 37 3  0.1000 13.7154 30.8442 14.8045
576 37 3  0.1000 14.6170 31.3670 16.0210
577 20 2 -0.2000 37.5971 19.8624 23.2279
578 20 3  0.1000 38.1477 18.7239 21.3930
579 20 3  0.1000 38.0755 17.8965 22.9430
580 21 2 -0.2000 -2.8790  8.5584 36.6439
581 21 3  0.1000 -0.8802  9.2326 37.4197
582 21 3  0.1000 -1.8734  8.2834 38.4642
583 22 2 -0.2000  9.8541  3.3200 23.4750
584 22 3  0.1000  9.7992  2.2663 25.4892
585 22 3  0.1000 10.8414  3.6816 25.3633
586 23 2 -0.2000  5.4923 22.9778 11.1777
587 23 3  0.1000  6.2095 24.2113  9.5303
588 23 3  0.1000  6.5888 24.8116 11.1070
589 24 2 -0.2000 44.9351 38.7475 30.2157
590 24 3  0.1000 45.1692 39.1503 28.0959
591 24 3  0.1000 43.7538 38.5591 28.5552
592 25 2 -0.2000 34.5385  6.1642 17.4701
593 25 3  0.1000 35.8542  6.4231 19.2594
594 25 3  0.1000 34.5700  7.5568 19.1499
595 26 2 -0.2000 27.4697 14.5496 23.8325
596 26 3  0.1000 26.3692 16.5434 23.6540
597 26 3  0.1000 25.7756 15.2033 22.7693
598 27 2 -0.2000 33.6866 32.2885 38.4062
599 27 3  0.1000 32.4371 30.6634 37.5750
600 27 3  0.1000 31.5861 32.0475 38.1628
601 28 2 -0.2000 17.9766 -9.4806 29.0334
602 28 3  0.1000 18.3992 -8.4535 27.1084
603 28 3  0.1000 16.7951 -8.5489 27.3980
604 29 2 -0.2000 19.2326 20.9695 22.5732
605 29 3  0.1000 18.5238 19.2751 21.3421
606 29 3  0.1000 19.7672 20.2478 20.6797
607 30 2 -0.2000 15.9773 21.5038 18.9084
608 30 3  0.1000 14.7174 22.8007 17.7232
609 30 3  0.1000 13.8741 21.3181 18.3895
610 31 2 -0.2000 23.8382 -5.3843 31.0688
611 31 3  0.1000 22.8590 -5.3079 29.0014
612 31 3  0.1000 22.1847 -6.1487 30.1442
613 32 2 -0.2000 23.9620 26.1935 35.7768
614 32 3  0.1000 22.5549 25.1960 34.3656
615 32 3  0.1000 21.9414 25.6129 35.8420
616 33 2 -0.2000 21.3085 24.9813 -1.2325
617 33 3  0.1000 19.9295 26.5017 -1.5479
618 33 3  0.1000 19.5172 25.3491 -0.2777
619 34 2 -0.2000  5.0820 12.4384 23.6355
620 34 3  0.1000  6.9817 12.1523 24.7844
621 34 3  0.1000  5.7235 13.2277 25.4044
622 35 2 -0.2000 32.1640 17.5436 41.2655
623 35 3  0.1000 32.3054 16.9672 43.4924
624 35 3  0.1000 31.4917 18.4325 43.0321
625 36 2 -0.2000 21.3707 45.2106 30.7193
626 36 3  0.1000 21.5960 43.5699 29.5376
627 36 3  0.1000 21.3892 45.0330 28.6071
628 37 2 -0.2000 13.1407 33.3363 14.3587
629 37 3  0.1000 14.2257 33.4987 16.2792
630 37 3  0.1000 12.5178 33.0261 16.2694
631 20 2 -0.2000 36.3412 20.7168 23.4912
632 20 3  0.1000 38.4596 20.4935 22.8349
633 20 3  0.1000 37.8218 19.5140 24.2580
634 21 2 -0.2000 -2.6080  8.7053 35.1312
635 21 3  0.1000 -3.5106  9.3501 36.8320
636 21 3  0.1000 -3.4980  7.7904 36.8517
637 22 2 -0.2000 10.1203  1.9767 22.8448
638 22 3  0.1000 10.5169  4.0253 23.0496
639 22 3  0.1000  8.8101  3.5643 23.2423
640 23 2 -0.2000  4.2294 22.9919 10.3575
641 23 3  0.1000  5.4063 22.9217 12.3876
642 23 3  0.1000  5.8661 22.0185 10.9048
643 24 2 -0.2000 43.8445 38.1051 30.8700
644 24 3  0.1000 45.4729 39.5877 30.8024
645 24 3  0.1000 45.6428 37.8798 30.0043
646 25 2 -0.2000 33.1433  5.7397 16.9007
647 25 3  0.1000 35.3183  5.4454 17.0327
648 25 3  0.1000 34.6899  7.1031 16.9312
649 26 2 -0.2000 28.4405 14.7001 25.0373
650 26 3  0.1000 28.0081 14.4795 22.9212
651 26 3  0.1000 27.0425 13.5135 23.8825
652 27 2 -0.2000 33.6264 31.7298 39.8319
653 27 3  0.1000 33.7802 33.3725 38.3611
654 27 3  0.1000 34.5810 31.9276 37.9009
655 28 2 -0.2000 16.9127 -10.5729 28.7991
656 28 3  0.1000 17.9461 -9.0603 30.0449
657 28 3  0.1000 18.9589 -10.0304 28.9284
658 29 2 -0.2000 17.8282 20.8243 23.2488
659 29 3  0.1000 19.2727 21.9161 21.9973
660 29 3  0.1000 19.9988 21.0484 23.3314
661 30 2 -0.2000 16.7744 21.0454 17.5815
662 30 3  0.1000 15.8379 20.5744 19.5788
663 30 3  0.1000 16.6494 22.1550 19.4653
664 31 2 -0.2000 25.3091 -5.4046 30.6170
665 31 3  0.1000 23.5523 -6.1350 31.7921
666 31 3  0.1000 23.7497 -4.5177 31.6445
667 32 2 -0.2000 24.3320 24.9288 36.6670
668 32 3  0.1000 23.8587 27.1648 36.3716
669 32 3  0.1000 24.7997 26.4750 35.1418
670 33 2 -0.2000 22.3922 24.5549 -0.2621
671 33 3  0.1000 21.6729 25.4502 -2.0851
672 33 3  0.1000 20.7667 23.9997 -1.6290
673 34 2 -0.2000  3.7015 13.0213 24.0895
674 34 3  0.1000  4.7750 11.6135 23.1380
675 34 3  0.1000  5.5931 13.0987 22.8457
676 35 2 -0.2000 33.2022 16.3914 41.0963
677 35 3  0.1000 32.4665 18.6060 40.9536
678 35 3  0.1000 31.3673 17.2790 40.5618
679 36 2 -0.2000 21.2443 44.1123 31.8926
680 36 3  0.1000 20.3046 45.5117 30.4129
681 36 3  0.1000 22.0256 45.9812 31.2383
682 37 2 -0.2000 14.3791 32.9445 13.4754
683 37 3  0.1000 12.8911 34.4746 14.1887
684 37 3  0.1000 12.1989 32.8212 14.0279
685 20 2 -0.2000 36.4701 22.2899 23.7231
686 20 3  0.1000 35.5067 20.3062 24.1747
687 20 3  0.1000 35.7586 20.6874 22.5404
688 21 2 -0.2000 -2.4550 10.1337 35.1083
689 21 3  0.1000 -3.4612  8.4803 34.4507
690 21 3  0.1000 -1.6358  8.2901 34.8372
691 22 2 -0.2000  9.9964  2.1416 21.3012
692 22 3  0.1000  9.4250  1.2102 23.3202
693 22 3  0.1000 11.1659  1.5836 23.1865
694 23 2 -0.2000  3.7962 21.6107  9.7986
695 23 3  0.1000  4.2315 23.7055  9.5354
696 23 3  0.1000  3.4968 23.4051 11.0677
697 24 2 -0.2000 43.0894 36.9792 30.2394
698 24 3  0.1000 43.1286 38.6742 31.5445
699 24 3  0.1000 44.3659 37.5253 31.7144
700 25 2 -0.2000 32.0043  6.7823 16.8971
701 25 3  0.1000 32.7830  4.8172 17.4265
702 25 3  0.1000 33.3423  5.4434 15.8704
703 26 2 -0.2000 29.5416 15.5802 24.6306
704 26 3  0.1000 28.6851 13.8133 25.6521
705 26 3  0.1000 27.8189 15.3482 25.7798
706 27 2 -0.2000 33.3054 32.8128 40.8260
707 27 3  0.1000 34.5099 31.2015 40.0719
708 27 3  0.1000 32.7747 30.9907 39.8834
709 28 2 -0.2000 15.7821 -10.8966 29.8146
710 28 3  0.1000 17.3145 -11.4673 28.4209
711 28 3  0.1000 16.4280 -10.2291 27.9403
712 29 2 -0.2000 17.6747 22.0157 24.1218
713 29 3  0.1000 17.5113 19.8967 23.7977