LAMMPS DATA FILE

4032 atoms 
 4014 bonds 
 7992 angles 
 11826 dihedrals 
 0 impropers 

 3 atom types 
 4 bond types 
 7 angle types 
 8 dihedral types 
 0 improper types 

0.00000  40.0000  xlo xhi
0.00000  40.0000  ylo yhi
0.00000  40.0000  zlo zhi

Masses

1  12.01115 
2  12.01115 
3  1.00797 

Pair Coeffs

1  0.038999995200   3.875409
2  0.038999995200   3.875409
3  0.038000001100   2.449971

Bond Coeffs

1 322.715800 1.526000 
2 340.617500 1.105000 
3 322.715800 1.526000 
4 340.617500 1.105000 

Angle Coeffs

1 46.600000 110.500000 
2 46.600000 110.500000 
3 44.400000 110.000000 
4 39.500000 106.400000 
5 44.400000 110.000000 
6 44.400000 110.000000 
7 39.500000 106.400000 

Dihedral Coeffs

1 0.158100 1 3 
2 0.158100 1 3 
3 0.158100 1 3 
4 0.158100 1 3 
5 0.158100 1 3 
6 0.158100 1 3 
7 0.158100 1 3 
8 0.158100 1 3 

Atoms

1 20 1 -0.3000 18.2142  4.0107  7.6735
2 20 2 -0.2000 19.4520  4.5369  8.3122
3 20 3  0.1000 18.2392  2.9339  7.5361
4 20 3  0.1000 17.7027  4.4227  6.9088
5 20 3  0.1000 17.4043  4.1044  8.3992
6 20 2 -0.2000 19.9679  5.8313  7.7407
7 20 3  0.1000 20.2405  3.6912  8.3036
8 20 3  0.1000 19.3858  4.7714  9.3590
9 20 2 -0.2000 21.0637  5.5302  6.7212
10 20 3  0.1000 20.2221  6.3538  8.6504
11 20 3  0.1000 19.2011  6.3322  7.2776
12 21 1 -0.3000  8.5517 35.8945 11.1568
13 21 2 -0.2000  7.8719 36.3644 12.4460
14 21 3  0.1000  9.4681 35.2545 11.3766
15 21 3  0.1000  8.9827 36.7546 10.5641
16 21 3  0.1000  7.8263 35.3167 10.6619
17 21 2 -0.2000  8.0766 37.7435 13.0466
18 21 3  0.1000  7.7985 35.5466 13.2013
19 21 3  0.1000  6.8219 36.4786 12.1570
20 21 2 -0.2000  8.7868 37.9379 14.3616
21 21 3  0.1000  7.2565 38.5259 12.7635
22 21 3  0.1000  8.8847 38.1316 12.3719
23 22 1 -0.3000 38.5250  8.8740 24.1957
24 22 2 -0.2000 39.9261  9.3606 24.2865
25 22 3  0.1000 38.3605  8.3867 23.2194
26 22 3  0.1000 37.6396  9.3578 24.7632
27 22 3  0.1000 38.6231  8.0184 24.8383
28 22 2 -0.2000 40.2765  9.5725 25.7542
29 22 3  0.1000 40.0690 10.3513 24.0052
30 22 3  0.1000 40.6314  8.6813 23.7317
31 22 2 -0.2000 41.7760  9.9299 25.7848
32 22 3  0.1000 39.7974  8.9589 26.5122
33 22 3  0.1000 39.7701 10.5227 26.0378
34 23 1 -0.3000 32.4709  5.7428 16.8302
35 23 2 -0.2000 31.4416  5.5298 15.7623
36 23 3  0.1000 33.2472  6.4998 16.5783
37 23 3  0.1000 32.7865  4.8405 17.5188
38 23 3  0.1000 31.9300  6.3286 17.5868
39 23 2 -0.2000 31.9785  4.3956 14.9846
40 23 3  0.1000 31.1967  6.3019 15.0300
41 23 3  0.1000 30.4657  5.3394 16.1555
42 23 2 -0.2000 31.8236  4.6416 13.4680
43 23 3  0.1000 31.7673  3.5753 15.6229
44 23 3  0.1000 33.1083  4.5125 15.1444
45 24 1 -0.3000 32.8161 33.5259 14.4669
46 24 2 -0.2000 32.6697 33.3192 13.0071
47 24 3  0.1000 33.6065 32.8701 14.9491
48 24 3  0.1000 31.9094 33.5889 15.2060
49 24 3  0.1000 33.3319 34.5312 14.6459
50 24 2 -0.2000 31.6524 32.2298 12.5965
51 24 3  0.1000 33.6316 33.2184 12.4158
52 24 3  0.1000 32.1788 34.1690 12.5696
53 24 2 -0.2000 30.9798 31.4263 13.6783
54 24 3  0.1000 32.0318 31.6495 11.6803
55 24 3  0.1000 30.8479 32.9446 12.0853
56 25 1 -0.3000  7.6517  7.0547 25.7670
57 25 2 -0.2000  6.3642  7.3564 24.9701
58 25 3  0.1000  8.4364  7.8327 25.5826
59 25 3  0.1000  8.1804  6.0736 25.6141
60 25 3  0.1000  7.4711  7.1755 26.8789
61 25 2 -0.2000  5.4732  6.2844 25.4289
62 25 3  0.1000  6.5181  7.5397 23.8968
63 25 3  0.1000  5.8768  8.2467 25.3584
64 25 2 -0.2000  4.3741  5.8646 24.3891
65 25 3  0.1000  4.8781  6.6013 26.3059
66 25 3  0.1000  6.0810  5.4137 25.8048
67 26 1 -0.3000 24.7165 19.3648 10.4752
68 26 2 -0.2000 24.7390 20.3114  9.3294
69 26 3  0.1000 25.7297 19.0720 10.9386
70 26 3  0.1000 24.6036 18.3804 10.0494
71 26 3  0.1000 24.0571 19.5633 11.2628
72 26 2 -0.2000 25.2128 19.9476  7.9500
73 26 3  0.1000 25.1637 21.3328  9.6775
74 26 3  0.1000 23.6805 20.5093  9.1783
75 26 2 -0.2000 26.3515 19.1045  7.7952
76 26 3  0.1000 25.2833 20.8505  7.4764
77 26 3  0.1000 24.3260 19.4063  7.3834
78 27 1 -0.3000 10.8811 33.5872 35.8131
79 27 2 -0.2000 10.9725 32.0001 35.8761
80 27 3  0.1000  9.9592 33.8893 35.2322
81 27 3  0.1000 11.7225 34.2559 35.3884
82 27 3  0.1000 10.5256 33.8696 36.6928
83 27 2 -0.2000  9.7468 31.2507 36.4817
84 27 3  0.1000 11.9582 31.6128 36.1673
85 27 3  0.1000 10.8459 31.6925 34.7791
86 27 2 -0.2000 10.3127 30.2117 37.6276
87 27 3  0.1000  8.9057 30.9480 35.7823
88 27 3  0.1000  9.2066 32.1306 37.0623
89 28 1 -0.3000 31.6389 10.8321 34.9808
90 28 2 -0.2000 30.1899 11.1696 34.9352
91 28 3  0.1000 32.0100 10.8734 36.0300
92 28 3  0.1000 32.3985 11.4544 34.3901
93 28 3  0.1000 31.7107  9.7812 34.6612
94 28 2 -0.2000 29.3737  9.9990 34.4225
95 28 3  0.1000 30.0298 12.1305 34.3081
96 28 3  0.1000 29.7205 11.4038 35.9681
97 28 2 -0.2000 27.8264 10.0547 34.5263
98 28 3  0.1000 29.7272  9.0789 34.9238
99 28 3  0.1000 29.4573  9.8166 33.3321
100 29 1 -0.3000 30.7963  4.2269 38.2504
101 29 2 -0.2000 29.7748  4.8403 37.2809
102 29 3  0.1000 31.8086  4.3812 37.9193
103 29 3  0.1000 30.6372  3.1258 38.3935
104 29 3  0.1000 30.6762  4.6922 39.2755
105 29 2 -0.2000 28.4825  5.1351 37.9721
106 29 3  0.1000 29.6759  4.3341 36.3420
107 29 3  0.1000 30.2035  5.8410 36.9587
108 29 2 -0.2000 28.6434  6.5113 38.7120
109 29 3  0.1000 28.3271  4.3145 38.6864
110 29 3  0.1000 27.6524  5.0419 37.1440
111 30 1 -0.3000 14.3819 28.0077  7.6871
112 30 2 -0.2000 13.9895 28.7302  6.3960
113 30 3  0.1000 15.0472 28.5477  8.4261
114 30 3  0.1000 14.6194 27.0116  7.6085
115 30 3  0.1000 13.5126 27.9673  8.2692
116 30 2 -0.2000 14.5363 30.0958  6.4245
117 30 3  0.1000 12.8427 28.7556  6.3859
118 30 3  0.1000 14.4264 28.3109  5.4130
119 30 2 -0.2000 13.6913 31.0770  5.4781
120 30 3  0.1000 15.5478 29.9446  6.0841
121 30 3  0.1000 14.5252 30.4799  7.4547
122 31 1 -0.3000 35.9605 16.1313 11.3000
123 31 2 -0.2000 36.9370 17.2705 11.2037
124 31 3  0.1000 35.6996 15.8668 10.2830
125 31 3  0.1000 35.1240 16.1107 12.0102
126 31 3  0.1000 36.4534 15.2972 11.7441
127 31 2 -0.2000 38.3518 16.7401 10.8113
128 31 3  0.1000 37.0749 17.8294 12.1193
129 31 3  0.1000 36.4989 17.9167 10.4630
130 31 2 -0.2000 39.1092 17.7506  9.9923
131 31 3  0.1000 38.3579 15.7201 10.3773
132 31 3  0.1000 38.8787 16.6511 11.7693
133 32 1 -0.3000  6.3170 24.9243 34.6043
134 32 2 -0.2000  6.0972 23.4792 34.2098
135 32 3  0.1000  5.3581 25.5909 34.6292
136 32 3  0.1000  7.2313 25.3380 34.1365
137 32 3  0.1000  6.6423 24.9921 35.6720
138 32 2 -0.2000  5.1112 22.5949 34.9752
139 32 3  0.1000  7.0090 22.9367 33.9938
140 32 3  0.1000  5.5746 23.6330 33.2518
141 32 2 -0.2000  5.6870 21.1863 35.2715
142 32 3  0.1000  4.1895 22.7465 34.5824
143 32 3  0.1000  4.9274 23.0148 35.9392
144 33 1 -0.3000 20.0449 10.4428 13.9348
145 33 2 -0.2000 19.2916 10.4463 12.6665
146 33 3  0.1000 20.8226  9.6643 13.7837
147 33 3  0.1000 19.5470 10.4132 14.9518
148 33 3  0.1000 20.4801 11.4137 13.9952
149 33 2 -0.2000 18.4096  9.1814 12.6868
150 33 3  0.1000 19.9206 10.5873 11.8222
151 33 3  0.1000 18.5216 11.3017 12.6167
152 33 2 -0.2000 18.0765  9.1054 11.2640
153 33 3  0.1000 17.4950  9.2665 13.3310
154 33 3  0.1000 19.0045  8.2980 12.9366
155 34 1 -0.3000 37.3388  6.5379 28.9294
156 34 2 -0.2000 37.5069  6.3694 30.5015
157 34 3  0.1000 36.2947  6.6975 28.6763
158 34 3  0.1000 37.9496  5.8369 28.3141
159 34 3  0.1000 37.8742  7.4377 28.5691
160 34 2 -0.2000 36.4500  5.2091 30.7692
161 34 3  0.1000 37.3710  7.2133 31.1295
162 34 3  0.1000 38.4607  5.9473 30.6370
163 34 2 -0.2000 35.2102  5.8171 31.4357
164 34 3  0.1000 36.8489  4.2465 31.2954
165 34 3  0.1000 36.1238  4.9537 29.7371
166 35 1 -0.3000 18.9495 26.3836 12.8186
167 35 2 -0.2000 20.0216 26.2879 13.8986
168 35 3  0.1000 18.2246 27.1975 12.8562
169 35 3  0.1000 18.4483 25.4325 12.8452
170 35 3  0.1000 19.4303 26.6383 11.8275
171 35 2 -0.2000 21.3316 26.0488 13.0593
172 35 3  0.1000 19.8103 25.5732 14.7501
173 35 3  0.1000 19.9762 27.2817 14.3408
174 35 2 -0.2000 22.0417 27.3037 12.5718
175 35 3  0.1000 21.0992 25.3885 12.1748
176 35 3  0.1000 22.0418 25.3926 13.5811
177 36 1 -0.3000 29.4675 18.1882 37.9146
178 36 2 -0.2000 29.2332 19.6277 38.3509
179 36 3  0.1000 29.8074 17.5742 38.8349
180 36 3  0.1000 30.2165 18.0483 37.1757
181 36 3  0.1000 28.4933 17.7454 37.6149
182 36 2 -0.2000 30.5964 20.1800 38.4683
183 36 3  0.1000 28.5862 19.8766 39.2546
184 36 3  0.1000 28.7156 20.1357 37.5261
185 36 2 -0.2000 30.5550 21.7062 38.7551
186 36 3  0.1000 31.2060 19.9630 37.5862
187 36 3  0.1000 31.1177 19.6641 39.3299
188 37 1 -0.3000 32.9715 14.1781 30.3468
189 37 2 -0.2000 34.1625 14.8891 29.8619
190 37 3  0.1000 32.8446 13.1053 30.0116
191 37 3  0.1000 32.0097 14.7128 30.2129
192 37 3  0.1000 33.0707 14.0466 31.3635
193 37 2 -0.2000 35.5530 14.3259 30.1435
194 37 3  0.1000 34.0519 15.9474 30.0742
195 37 3  0.1000 34.0731 14.8450 28.7779
196 37 2 -0.2000 35.8325 13.1318 31.1467
197 37 3  0.1000 36.1501 15.2103 30.2711
198 37 3  0.1000 35.8898 13.9452 29.1586
199 20 2 -0.2000 20.5282  5.6938  5.2090
200 20 3  0.1000 21.5594  4.4912  6.9600
201 20 3  0.1000 21.7628  6.2839  6.8003
202 21 2 -0.2000  7.7548 38.0095 15.4684
203 21 3  0.1000  9.5921 38.6816 14.4358
204 21 3  0.1000  9.2797 37.0039 14.4424
205 22 2 -0.2000 42.5197  8.9384 26.5944
206 22 3  0.1000 42.0624 11.0417 26.1414
207 22 3  0.1000 42.0628 10.0343 24.7017
208 23 2 -0.2000 30.3950  4.1476 12.8716
209 23 3  0.1000 32.6602  4.4201 12.7687
210 23 3  0.1000 31.7706  5.6808 13.4097
211 24 2 -0.2000 29.6843 30.8658 13.2360
212 24 3  0.1000 30.9426 31.9755 14.6595
213 24 3  0.1000 31.5589 30.4828 13.7132
214 25 2 -0.2000  4.6475  4.5041 23.7044
215 25 3  0.1000  3.9004  6.6185 23.7939
216 25 3  0.1000  3.5462  5.7189 25.0631
217 26 2 -0.2000 27.3480 19.5296  6.6748
218 26 3  0.1000 25.8601 18.1077  7.7417
219 26 3  0.1000 26.9732 19.1159  8.7554
220 27 2 -0.2000  9.2954 29.0805 37.8756
221 27 3  0.1000 10.7540 30.7771 38.4712
222 27 3  0.1000 11.2334 29.7478 37.2627
223 28 2 -0.2000 27.2061 11.3333 34.8912
224 28 3  0.1000 27.4305  9.1042 34.9279
225 28 3  0.1000 27.4985  9.9625 33.5013
226 29 2 -0.2000 29.4082  6.5339 40.1016
227 29 3  0.1000 27.7109  7.1832 38.6278
228 29 3  0.1000 29.3034  7.0713 37.9763
229 30 2 -0.2000 14.0995 32.5188  5.4134
230 30 3  0.1000 12.6478 30.7985  5.5264
231 30 3  0.1000 13.9143 30.7025  4.4338
232 31 2 -0.2000 40.5822 17.4312  9.7060
233 31 3  0.1000 38.9612 18.8326 10.3315
234 31 3  0.1000 38.4114 17.8559  9.0247
235 32 2 -0.2000  4.9032 20.0722 34.5578
236 32 3  0.1000  6.0907 20.9527 36.2673
237 32 3  0.1000  6.6070 21.1632 34.6717
238 33 2 -0.2000 16.8811  8.1921 11.0148
239 33 3  0.1000 18.9787  8.9883 10.5802
240 33 3  0.1000 17.7613 10.1419 11.0553
241 34 2 -0.2000 33.8941  4.9436 31.4690
242 34 3  0.1000 35.0144  6.8682 31.2777
243 34 3  0.1000 35.4714  5.8947 32.4517
244 35 2 -0.2000 23.4859 27.3943 13.1829
245 35 3  0.1000 21.4407 28.2111 12.7052
246 35 3  0.1000 22.1834 27.2670 11.4393
247 36 2 -0.2000 31.9177 22.1355 39.3018
248 36 3  0.1000 29.6435 22.1096 39.2530
249 36 3  0.1000 30.6336 22.2778 37.8369
250 37 2 -0.2000 35.6818 11.7710 30.6041
251 37 3  0.1000 35.1955 13.2172 32.0324
252 37 3  0.1000 36.8620 13.1606 31.5753
253 20 2 -0.2000 21.0730  4.7831  4.2098
254 20 3  0.1000 20.2713  6.7071  4.7605
255 20 3  0.1000 19.5225  5.3417  5.3183
256 21 2 -0.2000  7.2191 39.4211 15.6241
257 21 3  0.1000  8.2226 37.5058 16.3570
258 21 3  0.1000  6.8525 37.3202 15.2068
259 22 2 -0.2000 43.0559  9.4954 27.9564
260 22 3  0.1000 43.2456  8.4079 26.0649
261 22 3  0.1000 41.7460  8.1032 26.8437
262 23 2 -0.2000 29.5451  4.8629 11.8384
263 23 3  0.1000 29.7700  3.8108 13.7388
264 23 3  0.1000 30.6378  3.2027 12.3371
265 24 2 -0.2000 28.5255 31.4382 13.9590
266 24 3  0.1000 29.7132 29.7438 13.3083
267 24 3  0.1000 29.5238 31.0131 12.1557
268 25 2 -0.2000  5.0331  4.6174 22.1240
269 25 3  0.1000  3.7996  3.9284 23.8548
270 25 3  0.1000  5.3747  3.8952 24.2843
271 26 2 -0.2000 27.9139 20.9135  6.9502
272 26 3  0.1000 27.0020 19.3980  5.5628
273 26 3  0.1000 28.1873 18.8150  6.8379
274 27 2 -0.2000  9.2546 28.8148 39.3394
275 27 3  0.1000  9.5632 28.1110 37.3034
276 27 3  0.1000  8.3008 29.3291 37.5427
277 28 2 -0.2000 26.4273 11.2723 36.2005
278 28 3  0.1000 26.5843 11.7538 34.0834
279 28 3  0.1000 27.9341 12.2262 34.9038
280 29 2 -0.2000 28.9237  7.8450 40.6329
281 29 3  0.1000 30.4706  6.3764 39.9924
282 29 3  0.1000 29.0860  5.7775 40.7852
283 30 2 -0.2000 13.3685 33.3113  4.3538
284 30 3  0.1000 15.1724 32.9121  5.5330
285 30 3  0.1000 13.6708 32.9218  6.3151
286 31 2 -0.2000 41.0112 18.1858  8.4177
287 31 3  0.1000 40.8877 16.3019  9.7179
288 31 3  0.1000 41.2387 17.7786 10.6126
289 32 2 -0.2000  3.4012 19.9570 34.8839
290 32 3  0.1000  5.3916 19.1234 34.8924
291 32 3  0.1000  5.0799 20.1403 33.4568
292 33 2 -0.2000 17.3182  6.7692 10.8128
293 33 3  0.1000 16.2280  8.6067 10.1764
294 33 3  0.1000 16.3243  8.1699 11.9291
295 34 2 -0.2000 33.4533  4.5129 30.0829
296 34 3  0.1000 33.1537  5.3166 32.2127
297 34 3  0.1000 34.3203  3.9898 31.9568
298 35 2 -0.2000 24.0862 28.7011 12.6728
299 35 3  0.1000 24.2688 26.5714 13.1921
300 35 3  0.1000 23.3768 27.5001 14.2202
301 36 2 -0.2000 32.4551 23.5569 38.9270
302 36 3  0.1000 32.6590 21.2504 39.3858
303 36 3  0.1000 31.7636 22.2751 40.3723
304 37 2 -0.2000 36.9541 10.8641 30.5041
305 37 3  0.1000 35.0947 11.7233 29.6780
306 37 3  0.1000 35.0380 11.2743 31.2361
307 20 2 -0.2000 20.1665  4.6517  2.9701
308 20 3  0.1000 21.4002  3.7539  4.5799
309 20 3  0.1000 21.9432  5.2701  3.9510
310 21 2 -0.2000  6.3310 39.6764 16.8319
311 21 3  0.1000  6.8130 39.6056 14.6040
312 21 3  0.1000  8.1137 40.0034 15.6277
313 22 2 -0.2000 42.8849  8.5438 29.0993
314 22 3  0.1000 42.6347 10.4953 28.2196
315 22 3  0.1000 44.1259  9.7619 27.8851
316 23 2 -0.2000 29.3795  3.9397 10.6128
317 23 3  0.1000 29.6631  5.8893 11.5429
318 23 3  0.1000 28.5885  4.8594 12.3623
319 24 2 -0.2000 28.1707 30.6971 15.2839
320 24 3  0.1000 27.6406 31.4799 13.3399
321 24 3  0.1000 28.8119 32.5122 14.2807
322 25 2 -0.2000  4.6571  5.8520 21.4134
323 25 3  0.1000  4.7869  3.7821 21.5498
324 25 3  0.1000  6.1923  4.5210 22.0950
325 26 2 -0.2000 29.4344 20.9622  6.8813
326 26 3  0.1000 27.6110 21.4240  7.8423
327 26 3  0.1000 27.5679 21.4809  6.0876
328 27 2 -0.2000 10.5660 28.8484 39.9594
329 27 3  0.1000  8.7490 27.9183 39.6850
330 27 3  0.1000  8.6555 29.6315 39.7949
331 28 2 -0.2000 26.9722 10.6230 37.4394
332 28 3  0.1000 25.4256 10.9864 36.0359
333 28 3  0.1000 26.3087 12.3820 36.4871
334 29 2 -0.2000 30.1079  8.1676 41.4972
335 29 3  0.1000 27.9449  7.8366 41.2200
336 29 3  0.1000 28.8842  8.5705 39.7442
337 30 2 -0.2000 14.1177 33.8934  3.1769
338 30 3  0.1000 12.8222 34.0324  4.9473
339 30 3  0.1000 12.5838 32.6508  3.9853
340 31 2 -0.2000 41.3960 17.1835  7.2804
341 31 3  0.1000 41.8174 18.8830  8.5713
342 31 3  0.1000 40.1254 18.8271  8.0339
343 32 2 -0.2000  2.4200 18.9973 34.3214
344 32 3  0.1000  3.1132 21.1048 34.9313
345 32 3  0.1000  3.4787 19.5488 35.8937
346 33 2 -0.2000 17.2220  6.1204 12.1849
347 33 3  0.1000 18.2794  6.8589 10.3068
348 33 3  0.1000 16.6220  6.3013 10.1527
349 34 2 -0.2000 33.5613  5.5969 29.0546
350 34 3  0.1000 32.4417  4.0990 30.0978
351 34 3  0.1000 34.1651  3.7665 29.8596
352 35 2 -0.2000 25.2788 28.2572 11.8863
353 35 3  0.1000 24.2706 29.3842 13.4627
354 35 3  0.1000 23.3064 29.2893 12.1090
355 36 2 -0.2000 33.6382 23.7322 37.9672
356 36 3  0.1000 32.4118 24.3147 39.7378
357 36 3  0.1000 31.6200 23.9308 38.3427
358 37 2 -0.2000 36.8949  9.5644 29.6961
359 37 3  0.1000 37.2792 10.4794 31.4687
360 37 3  0.1000 37.7052 11.4631 30.0945
361 20 2 -0.2000 19.0503  3.5938  3.1039
362 20 3  0.1000 20.9304  4.6667  2.1060
363 20 3  0.1000 19.5838  5.5893  2.8311
364 21 2 -0.2000  5.8409 41.1472 16.3803
365 21 3  0.1000  6.8626 39.6031 17.8787
366 21 3  0.1000  5.5380 38.9788 16.8076
367 22 2 -0.2000 42.1647  9.0109 30.3195
368 22 3  0.1000 43.6273  7.9540 29.3521
369 22 3  0.1000 42.0979  7.8596 28.6275
370 23 2 -0.2000 28.2027  4.3665  9.8706
371 23 3  0.1000 29.3240  2.8460 10.7236
372 23 3  0.1000 30.2656  4.1142  9.9554
373 24 2 -0.2000 27.7934 31.6538 16.3232
374 24 3  0.1000 28.9040 29.9630 15.6627
375 24 3  0.1000 27.2861 29.9867 15.1334
376 25 2 -0.2000  5.0328  5.8835 19.9306
377 25 3  0.1000  4.8213  6.7901 21.9671
378 25 3  0.1000  3.5061  5.8136 21.3914
379 26 2 -0.2000 30.1207 21.8072  8.0543
380 26 3  0.1000 29.9883 21.1584  5.9590
381 26 3  0.1000 29.8153 19.8479  6.9863
382 27 2 -0.2000 10.5607 28.3465 41.3916
383 27 3  0.1000 11.1168 29.7526 39.9976
384 27 3  0.1000 11.2217 28.1828 39.4314
385 28 2 -0.2000 28.0990 11.5606 37.8880
386 28 3  0.1000 27.2041  9.5831 37.4441
387 28 3  0.1000 26.1088 10.6974 38.1756
388 29 2 -0.2000 29.7581  9.2966 42.3369
389 29 3  0.1000 31.1315  8.3217 40.9819
390 29 3  0.1000 30.2143  7.2812 42.1709
391 30 2 -0.2000 13.3150 35.0791  2.6994
392 30 3  0.1000 14.3247 33.0571  2.5235
393 30 3  0.1000 15.1042 34.2600  3.5204
394 31 2 -0.2000 41.6464 17.9141  5.9876
395 31 3  0.1000 40.7463 16.3357  7.2069
396 31 3  0.1000 42.4443 16.8413  7.5110
397 32 2 -0.2000  3.0197 18.0982 33.3097
398 32 3  0.1000  1.4950 19.3563 33.9986
399 32 3  0.1000  2.0867 18.3025 35.1547
400 33 2 -0.2000 18.2355  4.9622 12.4539
401 33 3  0.1000 16.2042  5.7055 12.4931
402 33 3  0.1000 17.6014  6.8718 12.8887
403 34 2 -0.2000 32.3700  6.4980 29.3974
404 34 3  0.1000 33.3601  5.0381 28.0668
405 34 3  0.1000 34.5511  6.1149 29.0546
406 35 2 -0.2000 25.3411 29.0748 10.5864
407 35 3  0.1000 25.4739 27.2008 11.7940
408 35 3  0.1000 26.1565 28.5815 12.5228
409 36 2 -0.2000 35.0879 23.6254 38.5674
410 36 3  0.1000 33.4874 24.7323 37.4742
411 36 3  0.1000 33.6120 23.0134 37.1261
412 37 2 -0.2000 36.9251  9.9547 28.2502
413 37 3  0.1000 36.0234  8.9519 30.0128
414 37 3  0.1000 37.7442  8.8422 29.9702
415 20 3  0.1000 18.1018  4.2103  3.1451
416 20 3  0.1000 19.1175  3.0390  4.0169
417 20 2 -0.2000 19.1984  2.6040  1.9687
418 21 3  0.1000  5.2533 41.0851 15.4319
419 21 3  0.1000  6.7897 41.7346 16.1412
420 21 2 -0.2000  5.3718 41.9937 17.5757
421 22 3  0.1000 41.0618  9.1581 30.1471
422 22 3  0.1000 42.4021 10.1338 30.2597
423 22 2 -0.2000 42.5166  8.5341 31.7311
424 23 3  0.1000 28.2725  4.5073  8.8111
425 23 3  0.1000 28.0397  5.3352 10.2318
426 23 2 -0.2000 26.9973  3.4515 10.0009
427 24 3  0.1000 27.1513 32.5326 15.9756
428 24 3  0.1000 28.7230 32.1636 16.6471
429 24 2 -0.2000 27.2012 30.9048 17.4944
430 25 3  0.1000  4.8008  4.9704 19.3931
431 25 3  0.1000  6.1102  5.9821 19.8106
432 25 2 -0.2000  4.3736  7.0449 19.2100
433 26 3  0.1000 30.8948 21.0846  8.5953
434 26 3  0.1000 29.4065 22.0859  8.8431
435 26 2 -0.2000 30.8577 23.0886  7.5697
436 27 3  0.1000 10.6413 27.2613 41.3623
437 27 3  0.1000  9.5237 28.4916 41.6425
438 27 2 -0.2000 11.2812 29.1303 42.4982
439 28 3  0.1000 28.1992 12.4512 37.2134
440 28 3  0.1000 29.1179 11.1234 37.6873
441 28 2 -0.2000 28.0061 11.9237 39.3832
442 29 3  0.1000 29.8678 10.1857 41.7213
443 29 3  0.1000 30.5935  9.2987 43.0214
444 29 2 -0.2000 28.5578  9.2565 43.1858
445 30 3  0.1000 12.7410 35.4256  3.5577
446 30 3  0.1000 12.4910 34.5703  2.0830
447 30 2 -0.2000 13.9227 36.0490  1.6759
448 31 3  0.1000 42.5662 17.5204  5.4816
449 31 3  0.1000 41.9216 18.9358  6.1528
450 31 2 -0.2000 40.4279 18.0939  5.1703
451 32 3  0.1000  3.6509 17.2109 33.6851
452 32 3  0.1000  3.6261 18.6417 32.7281
453 32 2 -0.2000  1.8944 17.5103 32.4298
454 33 3  0.1000 19.2005  5.1195 11.9242
455 33 3  0.1000 17.7732  4.0000 12.1725
456 33 2 -0.2000 18.4524  4.7764 13.9297
457 34 3  0.1000 32.7165  7.5198 29.1373
458 34 3  0.1000 32.1932  6.5747 30.4993
459 34 2 -0.2000 30.9755  6.0096 28.8343
460 35 3  0.1000 24.3388 29.0053 10.0317
461 35 3  0.1000 25.9147 28.4138  9.8888
462 35 2 -0.2000 26.1661 30.4303 10.6479
463 36 3  0.1000 35.0500 22.9201 39.4549
464 36 3  0.1000 35.3847 24.5598 39.0565
465 36 2 -0.2000 36.0677 23.5718 37.3396
466 37 3  0.1000 38.0637  9.8795 27.8436
467 37 3  0.1000 36.5897 11.0389 28.2202
468 37 2 -0.2000 36.0042  9.0284 27.4338
469 20 2 -0.2000 20.1619  1.3575  2.1547
470 20 3  0.1000 19.3474  3.1632  1.0830
471 20 3  0.1000 18.2781  2.1397  1.7808
472 21 2 -0.2000  4.5024 41.3228 18.4801
473 21 3  0.1000  4.7391 42.8343 17.3286
474 21 3  0.1000  6.2911 42.3062 18.0830
475 22 2 -0.2000 41.9952  7.0083 31.9276
476 22 3  0.1000 42.2393  9.1756 32.5243
477 22 3  0.1000 43.6169  8.5129 31.8253
478 23 2 -0.2000 26.2353  3.5793 11.2829
479 23 3  0.1000 26.9236  2.4086  9.4309
480 23 3  0.1000 26.3223  3.9744  9.2686
481 24 2 -0.2000 25.7234 30.5607 17.2396
482 24 3  0.1000 27.3801 31.3821 18.3710
483 24 3  0.1000 27.8548 30.0046 17.6848
484 25 2 -0.2000  4.8126  8.4004 19.7679
485 25 3  0.1000  3.3477  6.9626 18.8685
486 25 3  0.1000  4.8920  7.0723 18.2691
487 26 2 -0.2000 31.4983 22.9727  6.1597
488 26 3  0.1000 31.3744 23.3915  8.4892
489 26 3  0.1000 30.0763 23.9667  7.5668
490 27 2 -0.2000 10.3290 30.0658 43.2669
491 27 3  0.1000 12.1193 29.6217 42.1409
492 27 3  0.1000 11.7217 28.2926 43.1036
493 28 2 -0.2000 27.4308 13.3594 39.3648
494 28 3  0.1000 28.9836 11.8285 39.9635
495 28 3  0.1000 27.2975 11.3445 39.9542
496 29 2 -0.2000 28.1871  8.0767 44.1883
497 29 3  0.1000 27.6584  9.3934 42.6205
498 29 3  0.1000 28.7377 10.1680 43.7948
499 30 2 -0.2000 13.3159 35.6334  0.3557
500 30 3  0.1000 15.0648 36.0159  1.5072
501 30 3  0.1000 13.6169 37.1041  1.8806
502 31 2 -0.2000 40.4204 16.9223  4.2655
503 31 3  0.1000 40.1296 19.1151  4.8220
504 31 3  0.1000 39.6648 17.9248  5.8810
505 32 2 -0.2000  1.6514 16.0010 32.6648
506 32 3  0.1000  2.0491 17.8930 31.4537
507 32 3  0.1000  0.9273 17.9922 32.6787
508 33 2 -0.2000 17.3486  3.9774 14.5345
509 33 3  0.1000 18.5482  5.6733 14.6516
510 33 3  0.1000 19.4359  4.1856 14.0381
511 34 2 -0.2000 30.7792  5.9798 27.2772
512 34 3  0.1000 30.1599  6.5269 29.2815
513 34 3  0.1000 30.7729  4.8942 29.1159
514 35 2 -0.2000 25.3089 31.5887 10.2346
515 35 3  0.1000 27.0973 30.4492 10.1549
516 35 3  0.1000 26.4909 30.6133 11.5813
517 36 2 -0.2000 37.1893 22.5143 37.3191
518 36 3  0.1000 36.4001 24.6416 37.0930
519 36 3  0.1000 35.3872 23.3455 36.4708
520 37 2 -0.2000 35.3981  9.9366 26.3747
521 37 3  0.1000 35.3974  8.5229 28.1103
522 37 3  0.1000 36.4840  8.4072 26.7280
523 20 2 -0.2000 20.3099  0.6474  3.4715
524 20 3  0.1000 21.1795  1.5751  1.7301
525 20 3  0.1000 19.9696  0.5623  1.4674
526 21 2 -0.2000  3.3067 42.0761 18.9527
527 21 3  0.1000  5.2002 40.8337 19.2007
528 21 3  0.1000  4.1002 40.5223 17.9800
529 22 2 -0.2000 42.4450  6.4212 33.2122
530 22 3  0.1000 42.0913  6.4298 30.9951
531 22 3  0.1000 40.9508  7.2821 32.0504
532 23 2 -0.2000 25.3250  4.8012 11.3541
533 23 3  0.1000 26.9383  3.6385 12.1449
534 23 3  0.1000 25.6415  2.7207 11.6267
535 24 2 -0.2000 25.0066 30.1671 18.4727
536 24 3  0.1000 25.5984 29.7443 16.5450
537 24 3  0.1000 25.1944 31.4210 16.8713
538 25 2 -0.2000  6.0770  9.0356 19.2695
539 25 3  0.1000  4.8970  8.3050 20.8562
540 25 3  0.1000  4.0099  9.1738 19.7002
541 26 2 -0.2000 30.8128 23.9619  5.1908
542 26 3  0.1000 31.6177 21.9554  5.8265
543 26 3  0.1000 32.5351 23.3505  6.1619
544 27 2 -0.2000  9.4014 30.8257 42.3639
545 27 3  0.1000 10.8245 30.5854 44.0792
546 27 3  0.1000  9.7434 29.3888 43.7944
547 28 2 -0.2000 28.2994 13.9802 40.3186
548 28 3  0.1000 26.4153 13.3810 39.4237
549 28 3  0.1000 27.5825 13.8877 38.3495
550 29 2 -0.2000 26.6298  8.0203 44.4266
551 29 3  0.1000 28.6933  8.0771 45.1960
552 29 3  0.1000 28.5718  7.2489 43.6096
553 30 2 -0.2000 11.9920 36.3086  0.0684
554 30 3  0.1000 13.3144 34.5417  0.1743
555 30 3  0.1000 13.9695 35.9280 -0.3886
556 31 2 -0.2000 38.9855 16.3516  4.2013
557 31 3  0.1000 41.1332 16.1839  4.4264
558 31 3  0.1000 40.6229 17.3061  3.1941
559 32 2 -0.2000  0.3038 15.5350 33.3398
560 32 3  0.1000  2.6060 15.3915 33.0176
561 32 3  0.1000  1.5688 15.5904 31.6298
562 33 2 -0.2000 16.4020  4.8128 15.4962
563 33 3  0.1000 17.7715  3.0122 14.9508
564 33 3  0.1000 16.7147  3.6646 13.6893
565 34 2 -0.2000 30.2436  7.2553 26.8284
566 34 3  0.1000 30.3424  5.0521 26.7660
567 34 3  0.1000 31.7741  6.0057 26.8665
568 35 2 -0.2000 24.8770 31.1715  8.8361
569 35 3  0.1000 25.9748 32.4704 10.1868
570 35 3  0.1000 24.4775 31.7737 10.9831
571 36 2 -0.2000 36.8132 21.0997 37.8259
572 36 3  0.1000 38.2178 22.8096 37.7983
573 36 3  0.1000 37.4989 22.4212 36.2373
574 37 2 -0.2000 34.0230 10.4947 26.8568
575 37 3  0.1000 35.3956  9.3824 25.4720
576 37 3  0.1000 36.0077 10.8148 26.2308
577 20 2 -0.2000 21.6026 -0.1791  3.6607
578 20 3  0.1000 19.2962  0.2481  3.6545
579 20 3  0.1000 20.4840  1.4838  4.2483
580 21 2 -0.2000  2.1991 41.2545 19.5384
581 21 3  0.1000  3.0392 42.9626 18.3155
582 21 3  0.1000  3.6103 42.6105 19.9021
583 22 2 -0.2000 41.8567  5.0755 33.3704
584 22 3  0.1000 42.3201  7.0686 34.1258
585 22 3  0.1000 43.4596  6.1422 33.1954
586 23 2 -0.2000 25.2770  5.7001 10.1501
587 23 3  0.1000 25.7211  5.4253 12.2342
588 23 3  0.1000 24.3266  4.5165 11.6200
589 24 2 -0.2000 23.5434 30.4752 18.4168
590 24 3  0.1000 25.5586 30.7235 19.3303
591 24 3  0.1000 25.2506 29.0810 18.7166
592 25 2 -0.2000  5.7612 10.1283 18.1791
593 25 3  0.1000  6.8056  8.2415 19.0286
594 25 3  0.1000  6.3927  9.5545 20.1127
595 26 2 -0.2000 30.2082 23.0811  4.0423
596 26 3  0.1000 31.5480 24.7987  5.0017
597 26 3  0.1000 29.8735 24.2725  5.7546
598 27 2 -0.2000  8.7659 31.9418 43.1555
599 27 3  0.1000  8.5121 30.1593 42.1727
600 27 3  0.1000  9.7055 31.1058 41.3191
601 28 2 -0.2000 27.5081 14.9016 41.1577
602 28 3  0.1000 29.2066 14.3605 40.0705
603 28 3  0.1000 28.6662 13.2004 41.0425
604 29 2 -0.2000 26.2929  7.8476 45.8836
605 29 3  0.1000 26.1382  7.0798 44.0620
606 29 3  0.1000 26.0652  8.8494 43.9296
607 30 2 -0.2000 12.3315 37.4712 -0.9023
608 30 3  0.1000 11.4916 36.7597  0.9560
609 30 3  0.1000 11.2711 35.6774 -0.3924
610 31 2 -0.2000 38.2658 17.4789  3.3924
611 31 3  0.1000 38.4259 16.1913  5.1619
612 31 3  0.1000 38.8681 15.4077  3.6915
613 32 2 -0.2000  0.7056 14.1091 33.8891
614 32 3  0.1000 -0.4798 15.5349 32.5851
615 32 3  0.1000  0.0414 16.3058 34.1060
616 33 2 -0.2000 16.8996  5.4909 16.7931
617 33 3  0.1000 15.4317  4.4779 15.5671
618 33 3  0.1000 16.0964  5.7171 14.9223
619 34 2 -0.2000 28.6816  7.1714 26.6773
620 34 3  0.1000 30.6279  7.7288 25.9409
621 34 3  0.1000 30.4701  7.8541 27.6377
622 35 2 -0.2000 25.4541 32.1970  7.9230
623 35 3  0.1000 23.8205 31.0690  8.5303
624 35 3  0.1000 25.1795 30.1096  8.6718
625 36 2 -0.2000 38.0964 20.3469 38.2148
626 36 3  0.1000 36.2940 20.5712 36.9773
627 36 3  0.1000 36.1377 21.0212 38.6805
628 37 2 -0.2000 33.6940 11.8231 26.1092
629 37 3  0.1000 34.0631 10.7071 27.9136
630 37 3  0.1000 33.2541  9.7957 26.6868
631 20 2 -0.2000 21.4212 -1.0171  4.9669
632 20 3  0.1000 22.6125  0.3299  3.4932
633 20 3  0.1000 21.6221 -0.9533  2.8382
634 21 2 -0.2000  1.1438 42.2329 20.2086
635 21 3  0.1000  2.4741 40.4462 20.2092
636 21 3  0.1000  1.6867 40.6556 18.6213
637 22 2 -0.2000 41.0347  5.0437 34.6751
638 22 3  0.1000 42.5491  4.2235 33.2190
639 22 3  0.1000 41.2652  5.0945 32.5101
640 23 2 -0.2000 24.3546  6.8553 10.3366
641 23 3  0.1000 25.1285  5.1835  9.1188
642 23 3  0.1000 26.3326  5.9481 10.1263
643 24 2 -0.2000 22.8459 30.1798 17.1234
644 24 3  0.1000 23.2775 31.5098 18.8131
645 24 3  0.1000 22.9997 29.8066 19.1721
646 25 2 -0.2000  6.5236  9.8279 16.8826
647 25 3  0.1000  6.0681 11.0849 18.5860
648 25 3  0.1000  4.6569 10.2131 18.1169
649 26 2 -0.2000 30.4324 23.7154  2.6977
650 26 3  0.1000 29.2469 22.6758  4.1179
651 26 3  0.1000 30.8823 22.2007  4.0219
652 27 2 -0.2000  7.5686 32.3139 42.4245
653 27 3  0.1000  9.3590 32.8950 43.2929
654 27 3  0.1000  8.6209 31.4426 44.1702
655 28 2 -0.2000 28.0100 15.3309 42.4621
656 28 3  0.1000 26.4063 14.7424 41.1620
657 28 3  0.1000 27.5247 15.8911 40.5517
658 29 2 -0.2000 26.3076  9.1880 46.7678
659 29 3  0.1000 26.9108  7.0295 46.3228
660 29 3  0.1000 25.1897  7.4996 45.9364
661 30 2 -0.2000 11.8287 38.6699 -0.1530
662 30 3  0.1000 11.7873 37.3536 -1.8195
663 30 3  0.1000 13.4253 37.5924 -1.2069
664 31 2 -0.2000 37.4092 16.7363  2.4568
665 31 3  0.1000 38.8272 18.1561  2.9363
666 31 3  0.1000 37.5800 17.9213  4.1317
667 32 2 -0.2000  0.0888 13.9884 35.2257
668 32 3  0.1000  1.8046 13.9409 33.9672
669 32 3  0.1000  0.2411 13.2067 33.2914
670 33 2 -0.2000 15.7672  5.9424 17.5960
671 33 3  0.1000 17.8620  6.0784 16.8179
672 33 3  0.1000 17.2981  4.5448 17.3043
673 34 2 -0.2000 28.4363  7.1706 25.1674
674 34 3  0.1000 28.0764  7.8179 27.3288
675 34 3  0.1000 28.3423  6.1461 26.8033
676 35 2 -0.2000 26.7758 31.7731  7.3101
677 35 3  0.1000 25.2913 33.3110  8.4000
678 35 3  0.1000 24.8523 32.3687  7.0303
679 36 2 -0.2000 38.8533 20.0265 36.8921
680 36 3  0.1000 37.9902 19.3931 38.8432
681 36 3  0.1000 38.7064 20.9798 38.8926
682 37 2 -0.2000 33.0324 12.8740 26.9184
683 37 3  0.1000 33.2970 11.7589 24.9927
684 37 3  0.1000 34.6917 12.2449 25.8789
685 20 2 -0.2000 20.3537 -2.0643  5.1096
686 20 3  0.1000 21.3780 -0.4164  5.9402
687 20 3  0.1000 22.4102 -1.4647  5.1450
688 21 2 -0.2000  0.6549 41.7131 21.6033
689 21 3  0.1000  0.4466 42.6401 19.5505
690 21 3  0.1000  1.8028 43.0831 20.4513
691 22 2 -0.2000 39.6021  4.6597 34.7137
692 22 3  0.1000 41.0947  5.9401 35.3395
693 22 3  0.1000 41.5607  4.2375 35.2561
694 23 2 -0.2000 25.1340  8.1045 10.9050
695 23 3  0.1000 23.3752  6.6286 10.9511
696 23 3  0.1000 23.9268  7.2277  9.3391
697 24 2 -0.2000 21.6657 31.0996 16.7531
698 24 3  0.1000 22.3589 29.1804 16.9579
699 24 3  0.1000 23.6387 30.1912 16.3939
700 25 2 -0.2000  7.6731 10.7101 16.5741
701 25 3  0.1000  5.8165  9.5498 16.1116
702 25 3  0.1000  6.9435  8.8890 17.1466
703 26 2 -0.2000 29.2469 23.5340  1.8492
704 26 3  0.1000 31.4750 23.6221  2.2142
705 26 3  0.1000 30.4304 24.8415  2.8500
706 27 2 -0.2000  7.6433 33.7130 41.9357
707 27 3  0.1000  6.8057 32.1016 43.2702
708 27 3  0.1000  7.5108 31.5673 41.6818
709 28 2 -0.2000 28.7105 16.7507 42.1010
710 28 3  0.1000 28.7388 14.5116 42.8340
711 28 3  0.1000 27.1949 15.5522 43.1052
712 29 2 -0.2000 27.6406  9.6613 47.3419
713 29 3  0.1000 25.6940  9.1580 47.7585