LAMMPS DATA FILE

4032 atoms 
 4014 bonds 
 7992 angles 
 11826 dihedrals 
 0 impropers 

 3 atom types 
 4 bond types 
 7 angle types 
 8 dihedral types 
 0 improper types 

0.00000  40.0000  xlo xhi
0.00000  40.0000  ylo yhi
0.00000  40.0000  zlo zhi

Masses

1  12.01115 
2  12.01115 
3  1.00797 

Pair Coeffs

1  0.038999995200   3.875409
2  0.038999995200   3.875409
3  0.038000001100   2.449971

Bond Coeffs

1 322.715800 1.526000 
2 340.617500 1.105000 
3 322.715800 1.526000 
4 340.617500 1.105000 

Angle Coeffs

1 46.600000 110.500000 
2 46.600000 110.500000 
3 44.400000 110.000000 
4 39.500000 106.400000 
5 44.400000 110.000000 
6 44.400000 110.000000 
7 39.500000 106.400000 

Dihedral Coeffs

1 0.158100 1 3 
2 0.158100 1 3 
3 0.158100 1 3 
4 0.158100 1 3 
5 0.158100 1 3 
6 0.158100 1 3 
7 0.158100 1 3 
8 0.158100 1 3 

Atoms

1 20 1 -0.3000 24.4842 36.8858  4.3869
2 20 2 -0.2000 25.9517 36.5199  4.4329
3 20 3  0.1000 24.1749 37.5705  3.5399
4 20 3  0.1000 23.9966 37.4078  5.2340
5 20 3  0.1000 23.8927 35.9534  4.1921
6 20 2 -0.2000 26.5781 36.3712  5.8020
7 20 3  0.1000 26.7128 37.1634  3.8313
8 20 3  0.1000 26.0756 35.5225  3.9328
9 20 2 -0.2000 26.3187 35.0662  6.5186
10 20 3  0.1000 26.6410 37.3145  6.3545
11 20 3  0.1000 27.7041 36.2236  5.6267
12 21 1 -0.3000  0.6619 25.8820  3.0827
13 21 2 -0.2000 -0.5570 26.0031  2.0653
14 21 3  0.1000  1.3969 25.3345  2.5032
15 21 3  0.1000  0.6592 25.1900  3.9604
16 21 3  0.1000  1.1286 26.8628  3.2727
17 21 2 -0.2000 -0.7114 27.5445  1.9800
18 21 3  0.1000 -1.5495 25.6792  2.3889
19 21 3  0.1000 -0.3706 25.5166  1.0773
20 21 2 -0.2000 -2.1758 27.6603  2.4900
21 21 3  0.1000 -0.4847 28.0722  0.9553
22 21 3  0.1000 -0.0707 28.0431  2.7607
23 22 1 -0.3000  5.6687 13.3873 19.0262
24 22 2 -0.2000  5.7791 12.4906 17.7067
25 22 3  0.1000  4.6683 13.8148 18.9336
26 22 3  0.1000  6.4015 14.2181 19.0321
27 22 3  0.1000  5.6254 12.8783 20.0458
28 22 2 -0.2000  5.5406 13.5815 16.7011
29 22 3  0.1000  5.1815 11.7008 17.6197
30 22 3  0.1000  6.8315 12.1517 17.7088
31 22 2 -0.2000  5.5049 12.9655 15.3145
32 22 3  0.1000  6.3833 14.3122 16.8772
33 22 3  0.1000  4.6071 14.1171 16.8523
34 23 1 -0.3000  2.7072 23.3210  8.7326
35 23 2 -0.2000  2.4044 22.2806  9.8888
36 23 3  0.1000  2.7126 22.8525  7.7118
37 23 3  0.1000  3.6920 23.9229  8.9916
38 23 3  0.1000  1.8084 24.0684  8.7124
39 23 2 -0.2000  2.9926 22.6316 11.1691
40 23 3  0.1000  2.5562 21.2539  9.6747
41 23 3  0.1000  1.3735 22.4324 10.1358
42 23 2 -0.2000  4.2638 21.8365 11.6418
43 23 3  0.1000  2.1806 22.6797 11.9628
44 23 3  0.1000  3.3546 23.6734 11.0733
45 24 1 -0.3000 15.9512 13.0288 20.9680
46 24 2 -0.2000 16.2444 14.5283 21.2648
47 24 3  0.1000 14.9278 12.9000 20.6559
48 24 3  0.1000 16.3206 12.3683 21.6948
49 24 3  0.1000 16.6584 12.7247 20.1751
50 24 2 -0.2000 15.2846 15.2157 22.2183
51 24 3  0.1000 16.5129 15.0294 20.3163
52 24 3  0.1000 17.2043 14.5493 21.8180
53 24 2 -0.2000 15.5718 14.7353 23.5757
54 24 3  0.1000 14.2648 15.1759 21.7490
55 24 3  0.1000 15.5528 16.3527 22.2409
56 25 1 -0.3000 38.5342  4.2547 11.0407
57 25 2 -0.2000 38.4164  3.1996  9.9111
58 25 3  0.1000 38.1335  3.9294 11.9667
59 25 3  0.1000 38.2336  5.2570 10.8408
60 25 3  0.1000 39.6090  4.4026 11.2075
61 25 2 -0.2000 39.5755  3.4699  8.8798
62 25 3  0.1000 37.4504  3.0083  9.4643
63 25 3  0.1000 38.6707  2.2761 10.3266
64 25 2 -0.2000 38.8864  3.5736  7.5524
65 25 3  0.1000 40.4938  2.8406  8.8739
66 25 3  0.1000 40.0235  4.4597  9.0852
67 26 1 -0.3000  0.5712 13.6970 32.0915
68 26 2 -0.2000 -0.3158 12.9303 32.9678
69 26 3  0.1000  1.5439 13.4848 32.2576
70 26 3  0.1000  0.4598 14.8485 32.2705
71 26 3  0.1000  0.3327 13.3851 31.0875
72 26 2 -0.2000 -1.1710 11.9846 32.2152
73 26 3  0.1000 -0.7278 13.5427 33.8430
74 26 3  0.1000  0.3553 12.2585 33.5489
75 26 2 -0.2000 -0.3684 11.1762 31.1230
76 26 3  0.1000 -2.0446 12.4652 31.8525
77 26 3  0.1000 -1.4851 11.1349 32.8674
78 27 1 -0.3000 23.8539  7.4381 28.2419
79 27 2 -0.2000 24.5248  8.7954 28.2058
80 27 3  0.1000 23.4570  7.2851 27.2327
81 27 3  0.1000 22.9690  7.3025 28.9412
82 27 3  0.1000 24.5931  6.6006 28.4092
83 27 2 -0.2000 24.3538  9.4858 26.8778
84 27 3  0.1000 25.6182  8.7159 28.5392
85 27 3  0.1000 24.0657  9.3398 28.9662
86 27 2 -0.2000 24.5506 11.0202 26.6956
87 27 3  0.1000 23.3579  9.1371 26.4617
88 27 3  0.1000 25.1039  9.0602 26.1192
89 28 1 -0.3000  0.5687 18.8455 38.7175
90 28 2 -0.2000 -0.0327 20.0323 39.4945
91 28 3  0.1000  0.3683 17.9766 39.2490
92 28 3  0.1000  1.6071 18.9630 38.2175
93 28 3  0.1000 -0.0354 18.6541 37.8990
94 28 2 -0.2000 -0.1470 21.0569 38.3837
95 28 3  0.1000  0.6747 20.2581 40.3194
96 28 3  0.1000 -1.0311 19.7990 39.9262
97 28 2 -0.2000  1.0155 22.0676 38.1635
98 28 3  0.1000 -1.1550 21.5620 38.5047
99 28 3  0.1000 -0.1937 20.4549 37.4205
100 29 1 -0.3000 29.5379 20.4227  8.7496
101 29 2 -0.2000 29.0867 19.0131  9.3293
102 29 3  0.1000 30.0771 20.3945  7.7992
103 29 3  0.1000 30.0059 21.1224  9.4415
104 29 3  0.1000 28.6126 20.9911  8.3707
105 29 2 -0.2000 27.5821 19.0754  9.5461
106 29 3  0.1000 29.5772 18.8857 10.2830
107 29 3  0.1000 29.3995 18.2351  8.6224
108 29 2 -0.2000 27.1686 20.3850 10.2122
109 29 3  0.1000 27.0280 18.1909 10.0162
110 29 3  0.1000 27.0784 19.2465  8.5352
111 30 1 -0.3000 23.2326  9.2265 35.1156
112 30 2 -0.2000 21.8383  9.8327 35.3543
113 30 3  0.1000 23.6489  8.7943 36.0585
114 30 3  0.1000 23.7935  9.9280 34.6192
115 30 3  0.1000 23.1995  8.2897 34.4667
116 30 2 -0.2000 21.5469  9.7179 36.8457
117 30 3  0.1000 21.0470  9.4427 34.6311
118 30 3  0.1000 21.9598 10.9225 35.1866
119 30 2 -0.2000 20.4638 10.9368 37.0549
120 30 3  0.1000 22.4044  9.6880 37.4853
121 30 3  0.1000 20.9898  8.7926 36.9231
122 31 1 -0.3000  8.4848 10.9356 22.5217
123 31 2 -0.2000  7.4528 10.8324 23.7186
124 31 3  0.1000  9.3438 11.3189 22.9540
125 31 3  0.1000  8.1958 11.5651 21.6577
126 31 3  0.1000  8.6141  9.9672 22.2646
127 31 2 -0.2000  8.2269 10.9993 25.0320
128 31 3  0.1000  6.7549  9.9742 23.6429
129 31 3  0.1000  6.7626 11.7225 23.6265
130 31 2 -0.2000  8.5561 12.5371 25.1260
131 31 3  0.1000  9.1043 10.4456 25.1091
132 31 3  0.1000  7.6371 10.6213 25.8059
133 32 1 -0.3000 36.7033  5.8134 25.3855
134 32 2 -0.2000 36.1949  6.9690 24.5980
135 32 3  0.1000 36.2730  5.9589 26.4393
136 32 3  0.1000 37.7694  5.8592 25.3827
137 32 3  0.1000 36.2798  4.9327 24.9495
138 32 2 -0.2000 35.0619  7.6061 25.3984
139 32 3  0.1000 35.7720  6.6458 23.5781
140 32 3  0.1000 37.0635  7.6316 24.4321
141 32 2 -0.2000 34.2823  8.6494 24.6263
142 32 3  0.1000 35.5743  7.7815 26.3879
143 32 3  0.1000 34.3143  6.8948 25.6800
144 33 1 -0.3000 33.6933 37.3412  1.0841
145 33 2 -0.2000 33.1642 36.0999  0.4652
146 33 3  0.1000 33.1762 37.6425  2.0310
147 33 3  0.1000 33.6966 38.1208  0.3379
148 33 3  0.1000 34.8425 37.2532  1.2994
149 33 2 -0.2000 31.5848 36.1875  0.5663
150 33 3  0.1000 33.5676 35.1346  0.7533
151 33 3  0.1000 33.5319 36.1791 -0.5292
152 33 2 -0.2000 31.2895 34.9112 -0.1145
153 33 3  0.1000 31.1049 37.1444  0.1724
154 33 3  0.1000 31.2643 36.1196  1.5918
155 34 1 -0.3000 14.9154 35.4252 33.2299
156 34 2 -0.2000 14.8447 36.1379 34.5819
157 34 3  0.1000 15.8120 34.8841 33.1501
158 34 3  0.1000 14.7319 36.0852 32.3777
159 34 3  0.1000 14.1657 34.6363 33.3351
160 34 2 -0.2000 15.8127 37.2964 34.5672
161 34 3  0.1000 15.1262 35.4968 35.4132
162 34 3  0.1000 13.9311 36.5113 34.7779
163 34 2 -0.2000 15.0038 38.4868 35.0826
164 34 3  0.1000 16.0958 37.5161 33.5377
165 34 3  0.1000 16.7130 37.1152 35.1766
166 35 1 -0.3000 21.4665 23.4488 22.4712
167 35 2 -0.2000 22.5313 22.3536 22.1751
168 35 3  0.1000 21.1911 23.5610 23.5395
169 35 3  0.1000 20.5622 23.4280 21.8700
170 35 3  0.1000 21.9069 24.4274 22.2566
171 35 2 -0.2000 23.7360 22.8033 21.4218
172 35 3  0.1000 22.0814 21.4867 21.7028
173 35 3  0.1000 22.8875 21.9518 23.1458
174 35 2 -0.2000 23.6230 23.7726 20.1594
175 35 3  0.1000 24.5920 22.0840 21.4372
176 35 3  0.1000 24.1557 23.5415 22.1500
177 36 1 -0.3000  9.8370 39.1826 16.4858
178 36 2 -0.2000 10.7921 38.3568 17.3536
179 36 3  0.1000  8.8620 39.2148 17.1139
180 36 3  0.1000  9.6738 38.5787 15.6187
181 36 3  0.1000 10.2690 40.2201 16.2539
182 36 2 -0.2000 10.4071 37.7009 18.6812
183 36 3  0.1000 11.8009 38.8551 17.5073
184 36 3  0.1000 11.1389 37.4916 16.7738
185 36 2 -0.2000  9.0471 36.8513 18.6422
186 36 3  0.1000 10.4593 38.2776 19.5676
187 36 3  0.1000 11.2454 36.9912 18.8604
188 37 1 -0.3000 14.3807 20.5323 19.7777
189 37 2 -0.2000 13.0612 19.8230 19.5753
190 37 3  0.1000 14.9043 20.3517 20.7796
191 37 3  0.1000 14.4672 21.6478 19.4773
192 37 3  0.1000 15.1246 20.0077 19.1839
193 37 2 -0.2000 11.9680 20.8139 19.8795
194 37 3  0.1000 13.1480 18.9740 20.3471
195 37 3  0.1000 13.0114 19.3410 18.5173
196 37 2 -0.2000 11.9185 21.2961 21.3453
197 37 3  0.1000 11.1036 20.4267 19.4324
198 37 3  0.1000 12.0069 21.6817 19.2433
199 20 2 -0.2000 25.1511 35.1273  7.4361
200 20 3  0.1000 27.2248 34.7412  7.1495
201 20 3  0.1000 26.1295 34.3599  5.7127
202 21 2 -0.2000 -2.4402 27.9276  3.8656
203 21 3  0.1000 -2.9573 26.9560  2.0030
204 21 3  0.1000 -2.4309 28.7031  2.1332
205 22 2 -0.2000  5.8087 13.9288 14.1675
206 22 3  0.1000  4.6481 12.4506 14.9657
207 22 3  0.1000  6.3174 12.1002 15.3153
208 23 2 -0.2000  5.2694 21.8692 10.4912
209 23 3  0.1000  4.1920 20.8125 11.8969
210 23 3  0.1000  4.7229 22.3152 12.5922
211 24 2 -0.2000 14.4120 15.4831 24.4177
212 24 3  0.1000 16.6492 14.8179 23.9235
213 24 3  0.1000 15.3829 13.6687 23.6210
214 25 2 -0.2000 38.2625  4.8437  7.1758
215 25 3  0.1000 38.4372  2.6439  7.2266
216 25 3  0.1000 39.7444  3.5112  6.8037
217 26 2 -0.2000 -1.0873  9.9824 30.4175
218 26 3  0.1000  0.6028 11.0481 31.5584
219 26 3  0.1000 -0.1810 11.9319 30.2698
220 27 2 -0.2000 23.5275 11.8196 26.0136
221 27 3  0.1000 25.5529 11.2999 26.3471
222 27 3  0.1000 24.5233 11.4298 27.7260
223 28 2 -0.2000  0.4388 23.3108 38.5612
224 28 3  0.1000  1.3711 22.0312 37.1762
225 28 3  0.1000  1.9386 21.8417 38.7991
226 29 2 -0.2000 26.4200 20.2708 11.5443
227 29 3  0.1000 26.7744 21.1557  9.4714
228 29 3  0.1000 28.0089 20.9418 10.6754
229 30 2 -0.2000 20.0028 10.6646 38.5211
230 30 3  0.1000 19.7204 11.0886 36.2249
231 30 3  0.1000 21.0703 11.9326 37.0285
232 31 2 -0.2000 10.1425 12.7431 25.1093
233 31 3  0.1000  8.0311 12.9952 26.0140
234 31 3  0.1000  8.0835 13.1324 24.3626
235 32 2 -0.2000 34.5544  9.9663 25.3355
236 32 3  0.1000 33.2427  8.3326 24.6241
237 32 3  0.1000 34.6004  8.6932 23.5448
238 33 2 -0.2000 30.5553 35.1570 -1.3894
239 33 3  0.1000 30.7769 34.2297  0.6041
240 33 3  0.1000 32.1030 34.2890 -0.3352
241 34 2 -0.2000 14.7230 38.4750 36.5668
242 34 3  0.1000 14.1445 38.7216 34.4057
243 34 3  0.1000 15.5970 39.4015 35.0386
244 35 2 -0.2000 23.6682 23.0797 18.7414
245 35 3  0.1000 24.4219 24.5841 20.3119
246 35 3  0.1000 22.6866 24.3214 20.2427
247 36 2 -0.2000  8.8141 36.1503 20.0130
248 36 3  0.1000  8.7638 36.1513 17.8032
249 36 3  0.1000  8.1552 37.6924 18.6787
250 37 2 -0.2000 10.4664 21.2085 21.8942
251 37 3  0.1000 12.4473 22.2790 21.3819
252 37 3  0.1000 12.6305 20.5529 21.8559
253 20 2 -0.2000 24.2998 33.9126  7.8525
254 20 3  0.1000 24.4839 35.8954  7.0704
255 20 3  0.1000 25.6087 35.6061  8.3912
256 21 2 -0.2000 -4.0163 28.1036  3.7516
257 21 3  0.1000 -1.9277 28.6680  4.5639
258 21 3  0.1000 -2.3315 26.9349  4.4328
259 22 2 -0.2000  5.1727 13.1820 12.8605
260 22 3  0.1000  6.8975 14.1371 14.0622
261 22 3  0.1000  5.2819 14.9373 14.1591
262 23 2 -0.2000  6.1036 20.6539 10.2449
263 23 3  0.1000  5.8647 22.9073 10.4292
264 23 3  0.1000  4.6644 21.8693  9.6670
265 24 2 -0.2000 14.4722 14.8789 25.8416
266 24 3  0.1000 13.3966 15.6746 23.9794
267 24 3  0.1000 14.7557 16.5328 24.5455
268 25 2 -0.2000 37.2046  4.8915  6.0975
269 25 3  0.1000 39.0248  5.5645  7.0692
270 25 3  0.1000 37.8024  5.2124  8.0860
271 26 2 -0.2000 -0.4644  9.5584 29.0634
272 26 3  0.1000 -2.1299 10.0323 30.3635
273 26 3  0.1000 -0.8798  9.2284 31.2349
274 27 2 -0.2000 22.6403 12.6432 26.9109
275 27 3  0.1000 23.0271 11.2316 25.2404
276 27 3  0.1000 24.0734 12.5907 25.4171
277 28 2 -0.2000  0.2120 24.2799 37.3261
278 28 3  0.1000  0.9963 23.8327 39.3031
279 28 3  0.1000 -0.6144 23.1914 38.9913
280 29 2 -0.2000 27.0821 19.7429 12.8486
281 29 3  0.1000 25.4962 19.7420 11.2652
282 29 3  0.1000 25.9386 21.2706 11.7942
283 30 2 -0.2000 18.5239 10.8897 38.6732
284 30 3  0.1000 20.6244 11.1921 39.3500
285 30 3  0.1000 20.3187  9.6518 38.7272
286 31 2 -0.2000 10.4636 12.5802 26.5516
287 31 3  0.1000 10.3828 13.7176 24.7733
288 31 3  0.1000 10.6897 11.9974 24.5210
289 32 2 -0.2000 33.5037 10.3812 26.5056
290 32 3  0.1000 34.7787 10.5633 24.5635
291 32 3  0.1000 35.4171  9.8692 25.9120
292 33 2 -0.2000 29.0290 34.9135 -1.3824
293 33 3  0.1000 31.0000 34.4871 -2.1243
294 33 3  0.1000 30.6056 36.2232 -1.8058
295 34 2 -0.2000 15.6145 39.3837 37.4824
296 34 3  0.1000 14.4472 37.4354 37.0734
297 34 3  0.1000 13.7196 38.9316 36.6602
298 35 2 -0.2000 24.3510 21.7475 18.5775
299 35 3  0.1000 23.7991 23.8904 17.9535
300 35 3  0.1000 22.5946 22.8375 18.5633
301 36 2 -0.2000  8.5074 34.6595 19.8559
302 36 3  0.1000  8.0319 36.7578 20.6585
303 36 3  0.1000  9.7509 36.3437 20.6315
304 37 2 -0.2000 10.1828 19.6911 22.1001
305 37 3  0.1000  9.5164 21.6261 21.4162
306 37 3  0.1000 10.4592 21.7558 22.8383
307 20 2 -0.2000 22.8373 33.7363  7.2118
308 20 3  0.1000 24.2232 33.8201  8.9762
309 20 3  0.1000 24.9013 33.0494  7.4719
310 21 2 -0.2000 -4.4277 29.4369  3.1535
311 21 3  0.1000 -4.4849 27.8779  4.7586
312 21 3  0.1000 -4.3793 27.1779  3.2121
313 22 2 -0.2000  6.4172 13.2526 11.8821
314 22 3  0.1000  4.3389 13.6448 12.4459
315 22 3  0.1000  5.0291 12.1550 13.0503
316 23 2 -0.2000  6.9007 20.5230 11.6015
317 23 3  0.1000  6.6854 20.5999  9.2692
318 23 3  0.1000  5.3824 19.8210 10.2256
319 24 2 -0.2000 16.0196 15.0917 26.0886
320 24 3  0.1000 14.1357 13.9230 26.0123
321 24 3  0.1000 13.9109 15.5944 26.6363
322 25 2 -0.2000 37.3350  6.1537  5.2621
323 25 3  0.1000 36.4058  4.4106  6.5611
324 25 3  0.1000 37.5616  4.0800  5.3816
325 26 2 -0.2000  0.9725  9.2116 29.3831
326 26 3  0.1000 -0.6206 10.3541 28.2798
327 26 3  0.1000 -1.0477  8.7761 28.7113
328 27 2 -0.2000 21.4464 12.8972 25.9724
329 27 3  0.1000 23.1882 13.4662 27.4787
330 27 3  0.1000 22.1650 12.1113 27.7376
331 28 2 -0.2000  1.3888 25.2649 37.0016
332 28 3  0.1000 -0.8298 24.7439 37.4241
333 28 3  0.1000  0.0900 23.5583 36.5717
334 29 2 -0.2000 26.2296 20.2107 13.9735
335 29 3  0.1000 28.0831 20.0882 12.8381
336 29 3  0.1000 27.2263 18.7141 12.8732
337 30 2 -0.2000 17.8700 12.3219 38.7504
338 30 3  0.1000 18.0862 10.2037 39.3327
339 30 3  0.1000 18.1275 10.4855 37.7525
340 31 2 -0.2000 11.7718 13.2541 27.0762
341 31 3  0.1000 10.3386 11.5539 26.9514
342 31 3  0.1000  9.6907 13.0753 27.0196
343 32 2 -0.2000 33.1931 11.8806 26.5487
344 32 3  0.1000 33.8745  9.8679 27.4060
345 32 3  0.1000 32.5850  9.9570 26.2849
346 33 2 -0.2000 28.3648 36.2200 -0.8961
347 33 3  0.1000 28.5976 34.0119 -0.9556
348 33 3  0.1000 28.6641 34.8406 -2.4031
349 34 2 -0.2000 15.8507 38.8125 38.8804
350 34 3  0.1000 15.3670 40.5074 37.5177
351 34 3  0.1000 16.5784 39.3258 36.9897
352 35 2 -0.2000 25.2880 21.7949 17.4932
353 35 3  0.1000 23.7099 20.8802 18.4944
354 35 3  0.1000 24.9013 21.5207 19.5488
355 36 2 -0.2000  7.5939 34.0823 20.8666
356 36 3  0.1000  9.3972 34.0451 19.5286
357 36 3  0.1000  7.8595 34.5971 18.9332
358 37 2 -0.2000 10.8049 18.9950 23.2909
359 37 3  0.1000 10.0297 18.9309 21.2485
360 37 3  0.1000  9.1857 19.7498 22.4684
361 20 2 -0.2000 22.2651 32.6093  8.1247
362 20 3  0.1000 22.6805 33.5118  6.1697
363 20 3  0.1000 22.2809 34.6944  7.5003
364 21 2 -0.2000 -5.2524 30.1877  4.1664
365 21 3  0.1000 -4.9848 29.3593  2.3289
366 21 3  0.1000 -3.6227 30.0181  2.8887
367 22 2 -0.2000  6.4026 14.4844 10.9559
368 22 3  0.1000  6.5659 12.2877 11.5244
369 22 3  0.1000  7.2411 13.3768 12.4871
370 23 2 -0.2000  6.8876 19.0094 12.1262
371 23 3  0.1000  6.4516 21.1118 12.4067
372 23 3  0.1000  7.8396 20.9163 11.5277
373 24 2 -0.2000 16.3817 15.2186 27.5488
374 24 3  0.1000 16.5316 15.8625 25.5915
375 24 3  0.1000 16.5482 14.1815 25.7337
376 25 2 -0.2000 35.8064  6.5168  5.0333
377 25 3  0.1000 37.8825  5.9239  4.2912
378 25 3  0.1000 37.8104  6.8933  5.9033
379 26 2 -0.2000  1.6561  8.0822 28.4913
380 26 3  0.1000  1.0615  8.7545 30.4437
381 26 3  0.1000  1.3972 10.2238 29.6329
382 27 2 -0.2000 20.8093 14.2175 26.2929
383 27 3  0.1000 20.5508 12.1017 26.1358
384 27 3  0.1000 21.7627 12.6746 24.8978
385 28 2 -0.2000  0.7356 26.4639 36.4219
386 28 3  0.1000  2.2630 24.6967 36.4021
387 28 3  0.1000  1.8686 25.7090 37.9115
388 29 2 -0.2000 24.9665 19.3131 14.0302
389 29 3  0.1000 26.1102 21.2383 14.1276
390 29 3  0.1000 26.7725 20.0040 14.8325
391 30 2 -0.2000 18.9615 13.3547 39.1671
392 30 3  0.1000 17.0046 12.2619 39.4732
393 30 3  0.1000 17.4450 12.5255 37.7860
394 31 2 -0.2000 11.6900 14.5823 27.8323
395 31 3  0.1000 12.6588 13.2147 26.4046
396 31 3  0.1000 11.9704 12.5761 27.8362
397 32 2 -0.2000 34.1712 12.4636 27.5914
398 32 3  0.1000 32.1904 12.1876 26.6651
399 32 3  0.1000 33.4983 12.2509 25.5340
400 33 2 -0.2000 27.2001 36.5951 -1.7358
401 33 3  0.1000 28.9703 37.0700 -0.5737
402 33 3  0.1000 27.9784 35.8951  0.0221
403 34 2 -0.2000 16.2062 37.4409 38.7687
404 34 3  0.1000 14.9812 38.9394 39.4540
405 34 3  0.1000 16.5526 39.3783 39.4817
406 35 2 -0.2000 26.7632 21.8523 17.8117
407 35 3  0.1000 25.0353 22.5525 16.6679
408 35 3  0.1000 25.1062 20.7927 16.8700
409 36 2 -0.2000  8.2938 32.9321 21.5857
410 36 3  0.1000  6.6272 33.8420 20.4143
411 36 3  0.1000  7.2964 34.9453 21.5237
412 37 2 -0.2000  9.8039 18.2908 24.1249
413 37 3  0.1000 11.2586 19.7215 23.9546
414 37 3  0.1000 11.4803 18.1890 22.9625
415 20 3  0.1000 23.0233 31.9004  8.4627
416 20 3  0.1000 21.5335 32.0071  7.5159
417 20 2 -0.2000 21.3534 33.1229  9.3107
418 21 3  0.1000 -5.0760 29.9021  5.1319
419 21 3  0.1000 -6.3405 29.9498  3.9523
420 21 2 -0.2000 -5.1529 31.7001  4.0785
421 22 3  0.1000  6.0172 15.3703 11.4970
422 22 3  0.1000  5.8834 14.3442 10.1039
423 22 2 -0.2000  7.8413 14.5347 10.5854
424 23 3  0.1000  7.9030 18.6699 12.3513
425 23 3  0.1000  6.5067 18.2617 11.3673
426 23 2 -0.2000  5.9299 18.9776 13.2916
427 24 3  0.1000 15.7840 15.8562 28.0281
428 24 3  0.1000 17.2531 15.7775 27.4148
429 24 2 -0.2000 16.8356 14.0740 28.5529
430 25 3  0.1000 35.6063  7.5209  4.8184
431 25 3  0.1000 35.3259  6.2818  6.0309
432 25 2 -0.2000 35.1962  5.5778  3.9647
433 26 3  0.1000  2.8586  8.0752 28.2349
434 26 3  0.1000  1.1023  8.1634 27.5426
435 26 2 -0.2000  1.2543  6.6568 28.9058
436 27 3  0.1000 21.4930 15.0400 26.6355
437 27 3  0.1000 19.9731 14.0586 27.1895
438 27 2 -0.2000 19.8930 14.4314 25.0140
439 28 3  0.1000 -0.3383 26.7776 36.6980
440 28 3  0.1000  0.8558 26.3920 35.2986
441 28 2 -0.2000  1.5197 27.6367 36.9070
442 29 3  0.1000 24.5261 19.0727 13.0504
443 29 3  0.1000 24.1968 19.9294 14.4920
444 29 2 -0.2000 25.1398 18.0696 14.7776
445 30 3  0.1000 20.0157 13.2301 38.7767
446 30 3  0.1000 19.1886 13.1599 40.1636
447 30 2 -0.2000 18.2481 14.7808 39.1793
448 31 3  0.1000 12.5952 15.1555 28.0724
449 31 3  0.1000 11.1589 14.2604 28.7755
450 31 2 -0.2000 10.6949 15.5129 27.1208
451 32 3  0.1000 34.5948 11.8148 28.2909
452 32 3  0.1000 33.5004 13.1163 28.2348
453 32 2 -0.2000 35.2775 13.4089 26.9704
454 33 3  0.1000 26.6277 35.8123 -2.0959
455 33 3  0.1000 27.6898 36.9109 -2.6928
456 33 2 -0.2000 26.3923 37.7602 -1.0781
457 34 3  0.1000 16.3556 37.0110 37.7356
458 34 3  0.1000 15.3523 36.8486 39.0145
459 34 2 -0.2000 17.3368 37.0054 39.8158
460 35 3  0.1000 27.2737 20.9792 17.3011
461 35 3  0.1000 26.8794 21.6066 18.8584
462 35 2 -0.2000 27.5100 23.2082 17.6248
463 36 3  0.1000  9.3080 33.1376 22.0868
464 36 3  0.1000  8.5639 32.1758 20.8152
465 36 2 -0.2000  7.4022 32.3735 22.6323
466 37 3  0.1000 10.2344 17.6818 24.9540
467 37 3  0.1000  9.4542 17.5044 23.5112
468 37 2 -0.2000  8.4498 18.9827 24.5486
469 20 2 -0.2000 19.9789 33.2606  8.6540
470 20 3  0.1000 21.5396 34.0942  9.9776
471 20 3  0.1000 21.3306 32.2561 10.1020
472 21 2 -0.2000 -5.9878 32.2633  2.8964
473 21 3  0.1000 -4.2954 32.1123  4.5505
474 21 3  0.1000 -5.8841 31.9451  4.9172
475 22 2 -0.2000  8.1930 13.8926  9.3116
476 22 3  0.1000  8.5817 14.1833 11.3525
477 22 3  0.1000  8.0434 15.5846 10.4573
478 23 2 -0.2000  4.7266 18.0768 13.2919
479 23 3  0.1000  5.8331 19.9635 13.8317
480 23 3  0.1000  6.5887 18.3802 14.0537
481 24 2 -0.2000 15.8120 13.8100 29.6251
482 24 3  0.1000 17.8545 14.1367 28.8866
483 24 3  0.1000 16.8070 12.9920 27.9954
484 25 2 -0.2000 33.8797  4.9467  4.5067
485 25 3  0.1000 35.8985  4.8072  3.6787
486 25 3  0.1000 34.9824  6.1738  3.0829
487 26 2 -0.2000  1.3657  5.9574 27.5441
488 26 3  0.1000  0.3240  6.5639 29.5047
489 26 3  0.1000  2.0608  6.2756 29.5589
490 27 2 -0.2000 20.6600 15.4118 24.0937
491 27 3  0.1000 18.8571 14.5391 25.2065
492 27 3  0.1000 19.8876 13.4105 24.5238
493 28 2 -0.2000  3.0116 27.6300 36.3049
494 28 3  0.1000  1.5714 27.7077 38.0002
495 28 3  0.1000  0.9900 28.6137 36.6043
496 29 2 -0.2000 23.9634 18.1732 15.8067
497 29 3  0.1000 26.1151 17.6244 14.9931
498 29 3  0.1000 24.7630 17.4177 14.0781
499 30 2 -0.2000 19.0439 15.7259 38.3501
500 30 3  0.1000 18.1419 15.1136 40.3015
501 30 3  0.1000 17.2060 14.6295 38.7948
502 31 2 -0.2000 10.4289 16.4635 28.2458
503 31 3  0.1000  9.9673 15.0605 26.4607
504 31 3  0.1000 11.4495 16.1705 26.4110
505 32 2 -0.2000 36.6704 13.4972 27.6213
506 32 3  0.1000 34.9502 14.4397 26.8280
507 32 3  0.1000 35.4432 13.0618 25.9570
508 33 2 -0.2000 26.3472 39.0593 -1.9064
509 33 3  0.1000 26.8333 37.9114 -0.0801
510 33 3  0.1000 25.4865 37.1925 -0.8188
511 34 2 -0.2000 16.9442 36.4070 41.1105
512 34 3  0.1000 18.1342 37.7943 39.9436
513 34 3  0.1000 17.8570 36.2432 39.3614
514 35 2 -0.2000 26.5705 24.2027 18.2712
515 35 3  0.1000 27.8054 23.5876 16.5907
516 35 3  0.1000 28.4648 23.2191 18.2689
517 36 2 -0.2000  6.4815 31.4841 21.8611
518 36 3  0.1000  6.9284 33.0671 23.2389
519 36 3  0.1000  7.8245 31.7246 23.3753
520 37 2 -0.2000  8.6448 18.9397 26.0677
521 37 3  0.1000  7.6281 18.3932 24.1750
522 37 3  0.1000  8.3518 19.9846 24.0858
523 20 2 -0.2000 19.2511 32.0180  9.0428
524 20 3  0.1000 19.9624 33.5489  7.6489
525 20 3  0.1000 19.4521 34.0601  9.1349
526 21 2 -0.2000 -6.5814 33.6161  3.0709
527 21 3  0.1000 -6.6493 31.5381  2.3141
528 21 3  0.1000 -5.1284 32.3864  2.1388
529 22 2 -0.2000  7.8166 14.5630  7.9608
530 22 3  0.1000  8.0068 12.8154  9.4277
531 22 3  0.1000  9.2671 13.8873  9.2282
532 23 2 -0.2000  3.6091 19.0645 13.8544
533 23 3  0.1000  4.8561 17.0763 13.7656
534 23 3  0.1000  4.4655 17.8255 12.2519
535 24 2 -0.2000 15.0922 12.5058 29.5758
536 24 3  0.1000 15.0401 14.6029 29.8618
537 24 3  0.1000 16.4141 13.9207 30.6455
538 25 2 -0.2000 33.8951  3.4171  4.7976
539 25 3  0.1000 33.0983  5.1640  3.7397
540 25 3  0.1000 33.5472  5.5219  5.4809
541 26 2 -0.2000  2.1306  4.6571 27.5180
542 26 3  0.1000  1.6919  6.6532 26.7233
543 26 3  0.1000  0.2810  5.7316 27.2477
544 27 2 -0.2000 20.5312 16.8307 24.6171
545 27 3  0.1000 20.4626 15.4418 22.9547
546 27 3  0.1000 21.7749 15.0012 24.1798
547 28 2 -0.2000  3.6368 28.9972 36.4335
548 28 3  0.1000  3.2357 26.9949 35.4025
549 28 3  0.1000  3.5713 27.0126 37.1147
550 29 2 -0.2000 23.6679 16.8466 16.5491
551 29 3  0.1000 23.1246 18.7572 15.4587
552 29 3  0.1000 24.3295 18.6766 16.6443
553 30 2 -0.2000 18.9181 17.2598 38.6850
554 30 3  0.1000 19.1231 15.4216 37.2901
555 30 3  0.1000 20.1128 15.6261 38.6467
556 31 2 -0.2000 11.0133 17.8264 27.9773
557 31 3  0.1000 10.4585 16.1344 29.3297
558 31 3  0.1000  9.2803 16.6024 28.1541
559 32 2 -0.2000 37.4318 14.5794 26.9969
560 32 3  0.1000 37.2804 12.5712 27.5289
561 32 3  0.1000 36.7048 13.6913 28.6786
562 33 2 -0.2000 27.6921 39.8150 -1.7870
563 33 3  0.1000 25.4810 39.5859 -1.4909
564 33 3  0.1000 26.1192 38.7978 -2.9002
565 34 2 -0.2000 15.7931 35.4668 41.0467
566 34 3  0.1000 16.9304 37.1472 41.9013
567 34 3  0.1000 17.7214 35.6910 41.4626
568 35 2 -0.2000 27.2895 25.4427 18.7640
569 35 3  0.1000 26.0531 23.9177 19.1308
570 35 3  0.1000 25.7080 24.4304 17.6305
571 36 2 -0.2000  7.0283 30.2142 21.2138
572 36 3  0.1000  5.7453 32.0077 21.2981
573 36 3  0.1000  5.8959 31.0646 22.6359
574 37 2 -0.2000  7.3669 18.7477 26.7754
575 37 3  0.1000  9.3356 19.7175 26.3590
576 37 3  0.1000  9.2637 18.0201 26.3358
577 20 2 -0.2000 18.8880 32.0117 10.5479
578 20 3  0.1000 19.7502 31.0867  8.8350
579 20 3  0.1000 18.3359 31.8875  8.5122
580 21 2 -0.2000 -5.7352 34.3633  4.1221
581 21 3  0.1000 -7.6568 33.8133  3.1020
582 21 3  0.1000 -6.3652 34.0887  2.1248
583 22 2 -0.2000  8.1225 13.5097  6.8907
584 22 3  0.1000  8.0708 15.6624  7.7462
585 22 3  0.1000  6.7008 14.5585  8.0931
586 23 2 -0.2000  2.3557 18.3005 13.1902
587 23 3  0.1000  3.5861 20.1044 13.4649
588 23 3  0.1000  3.4694 19.1079 14.9254
589 24 2 -0.2000 13.8734 12.5858 30.4827
590 24 3  0.1000 15.8906 11.7343 29.6573
591 24 3  0.1000 14.6430 12.2993 28.5443
592 25 2 -0.2000 32.9747  2.5929  3.9028
593 25 3  0.1000 33.9468  3.1302  5.8566
594 25 3  0.1000 34.8512  3.1656  4.4865
595 26 2 -0.2000  3.1824  4.5573 26.5388
596 26 3  0.1000  1.5861  3.7512 27.3882
597 26 3  0.1000  2.7471  4.6304 28.4156
598 27 2 -0.2000 21.3308 18.0120 23.9444
599 27 3  0.1000 20.4773 16.9262 25.7416
600 27 3  0.1000 19.5453 17.1594 24.3530
601 28 2 -0.2000  5.0850 28.6560 36.5527
602 28 3  0.1000  3.1964 29.7328 37.1041
603 28 3  0.1000  3.4776 29.4537 35.4917
604 29 2 -0.2000 23.7023 17.1609 18.0973
605 29 3  0.1000 24.2756 15.9067 16.2190
606 29 3  0.1000 22.6132 16.5357 16.2595
607 30 2 -0.2000 20.1813 17.9249 39.2802
608 30 3  0.1000 17.8743 17.4970 39.0598
609 30 3  0.1000 18.8882 17.7043 37.7020
610 31 2 -0.2000 12.3907 17.7479 28.5940
611 31 3  0.1000 10.3980 18.7083 28.3748
612 31 3  0.1000 11.0821 18.0247 26.9887
613 32 2 -0.2000 38.5876 14.8777 27.8862
614 32 3  0.1000 36.8112 15.4171 26.6509
615 32 3  0.1000 37.8913 14.2102 26.1080
616 33 2 -0.2000 27.6791 41.0548 -2.6563
617 33 3  0.1000 28.5819 39.2104 -1.7997
618 33 3  0.1000 27.7534 40.1554 -0.7504
619 34 2 -0.2000 14.5232 36.0686 41.6485
620 34 3  0.1000 16.0793 34.5280 41.4609
621 34 3  0.1000 15.5805 35.3516 39.9485
622 35 2 -0.2000 27.1282 25.6038 20.2888
623 35 3  0.1000 26.9395 26.2979 18.3907
624 35 3  0.1000 28.3517 25.2175 18.4841
625 36 2 -0.2000  5.9724 29.3676 20.4723
626 36 3  0.1000  7.4264 29.4630 21.9182
627 36 3  0.1000  7.9010 30.4791 20.5297
628 37 2 -0.2000  7.4418 18.6751 28.2687
629 37 3  0.1000  6.6499 18.0533 26.1466
630 37 3  0.1000  6.8509 19.7778 26.6260
631 20 2 -0.2000 17.9926 30.8763 10.5605
632 20 3  0.1000 18.5456 33.0234 10.9507
633 20 3  0.1000 19.8317 31.7913 11.1010
634 21 2 -0.2000 -6.1339 35.8647  4.3876
635 21 3  0.1000 -4.7032 34.2709  4.0768
636 21 3  0.1000 -5.9556 33.9940  5.1160
637 22 2 -0.2000  6.8287 12.8213  6.2484
638 22 3  0.1000  8.8167 12.7192  7.2070
639 22 3  0.1000  8.7001 14.0418  6.1154
640 23 2 -0.2000  1.2045 18.3192 14.2376
641 23 3  0.1000  2.4372 17.2455 13.0332
642 23 3  0.1000  2.0247 18.8066 12.1891
643 24 2 -0.2000 13.7499 11.0877 30.6390
644 24 3  0.1000 13.0315 13.0963 29.9864
645 24 3  0.1000 14.0990 13.0019 31.4886
646 25 2 -0.2000 32.0776  1.7274  4.6929
647 25 3  0.1000 33.5371  2.1040  3.1050
648 25 3  0.1000 32.3275  3.3382  3.4234
649 26 2 -0.2000  2.9999  3.6919 25.2145
650 26 3  0.1000  4.0595  4.2153 27.1981
651 26 3  0.1000  3.5170  5.5181 26.3002
652 27 2 -0.2000 22.8472 17.6828 23.7046
653 27 3  0.1000 21.1980 19.0581 24.4620
654 27 3  0.1000 20.8383 18.1719 22.9137
655 28 2 -0.2000  6.0461 29.7819 36.4466
656 28 3  0.1000  5.4515 27.8715 35.8266
657 28 3  0.1000  5.2912 28.2020 37.5743
658 29 2 -0.2000 22.3265 16.6810 18.6890
659 29 3  0.1000 23.7915 18.2024 18.2120
660 29 3  0.1000 24.6036 16.6623 18.6569
661 30 2 -0.2000 20.7135 19.1151 38.4688
662 30 3  0.1000 21.0081 17.3121 39.5478
663 30 3  0.1000 19.7984 18.2805 40.2763
664 31 2 -0.2000 12.4693 19.1198 29.3211
665 31 3  0.1000 13.1411 17.7400 27.8207
666 31 3  0.1000 12.3691 16.8078 29.2525
667 32 2 -0.2000 39.9286 13.9996 27.6565
668 32 3  0.1000 38.1231 14.9609 28.9607
669 32 3  0.1000 38.8645 15.9362 27.6698
670 33 2 -0.2000 28.7682 40.9574 -3.7081
671 33 3  0.1000 27.6260 42.0419 -2.1232
672 33 3  0.1000 26.7328 41.0003 -3.2289
673 34 2 -0.2000 14.6498 36.1153 43.2012
674 34 3  0.1000 13.6380 35.4178 41.3730
675 34 3  0.1000 14.2335 37.1928 41.2892
676 35 2 -0.2000 27.6634 26.7650 21.0869
677 35 3  0.1000 27.1919 24.5460 20.7454
678 35 3  0.1000 26.0447 25.7290 20.3430
679 36 2 -0.2000  6.1144 29.4384 18.9471
680 36 3  0.1000  4.8881 29.3091 20.9074
681 36 3  0.1000  6.2589 28.2726 20.6576
682 37 2 -0.2000  6.9666 17.3594 28.9092
683 37 3  0.1000  7.0856 19.5581 28.9248
684 37 3  0.1000  8.5197 18.7971 28.4812
685 20 2 -0.2000 16.6680 31.3322 11.1754
686 20 3  0.1000 18.5101 30.1355 11.0042
687 20 3  0.1000 17.7316 30.4268  9.5161
688 21 2 -0.2000 -5.1655 36.7131  5.1281
689 21 3  0.1000 -7.2502 36.0600  4.6700
690 21 3  0.1000 -6.1686 36.2203  3.3720
691 22 2 -0.2000  6.0243 13.6534  5.2812
692 22 3  0.1000  6.3338 12.2149  6.9899
693 22 3  0.1000  7.2890 11.9836  5.4581
694 23 2 -0.2000  0.0731 18.9872 13.5374
695 23 3  0.1000  1.4982 18.7487 15.1862
696 23 3  0.1000  0.9902 17.1219 14.4853
697 24 2 -0.2000 14.6028 10.2921 31.6337
698 24 3  0.1000 13.5497 10.5433 29.6270
699 24 3  0.1000 12.6848 10.9139 31.1444
700 25 2 -0.2000 32.0682  0.4163  4.0366
701 25 3  0.1000 31.2255  2.2527  4.9227
702 25 3  0.1000 32.5705  1.5353  5.5859
703 26 2 -0.2000  2.4029  4.5791 24.1770
704 26 3  0.1000  2.4390  2.7144 25.3690
705 26 3  0.1000  3.9876  3.3419 24.8954
706 27 2 -0.2000 23.7392 18.5948 24.4104
707 27 3  0.1000 23.2346 17.4468 22.6856
708 27 3  0.1000 23.0806 16.7743 24.1969
709 28 2 -0.2000  7.4316 29.2021 36.4895
710 28 3  0.1000  5.8960 30.6603 37.2043
711 28 3  0.1000  5.8958 30.3538 35.5397
712 29 2 -0.2000 22.2783 15.0652 18.6758
713 29 3  0.1000 21.2984 17.0965 18.2821