LAMMPS DATA FILE

4032 atoms 
 4014 bonds 
 7992 angles 
 11826 dihedrals 
 0 impropers 

 3 atom types 
 4 bond types 
 7 angle types 
 8 dihedral types 
 0 improper types 

0.00000  40.0000  xlo xhi
0.00000  40.0000  ylo yhi
0.00000  40.0000  zlo zhi

Masses

1  12.01115 
2  12.01115 
3  1.00797 

Pair Coeffs

1  0.038999995200   3.875409
2  0.038999995200   3.875409
3  0.038000001100   2.449971

Bond Coeffs

1 322.715800 1.526000 
2 340.617500 1.105000 
3 322.715800 1.526000 
4 340.617500 1.105000 

Angle Coeffs

1 46.600000 110.500000 
2 46.600000 110.500000 
3 44.400000 110.000000 
4 39.500000 106.400000 
5 44.400000 110.000000 
6 44.400000 110.000000 
7 39.500000 106.400000 

Dihedral Coeffs

1 0.158100 1 3 
2 0.158100 1 3 
3 0.158100 1 3 
4 0.158100 1 3 
5 0.158100 1 3 
6 0.158100 1 3 
7 0.158100 1 3 
8 0.158100 1 3 

Atoms

1 20 1 -0.3000 16.6939 39.2991  8.6402
2 20 2 -0.2000 16.7255 37.8451  8.1357
3 20 3  0.1000 17.3380 39.6042  9.5461
4 20 3  0.1000 15.6479 39.6394  8.9314
5 20 3  0.1000 17.1354 39.9930  7.8920
6 20 2 -0.2000 16.9710 36.7226  9.1259
7 20 3  0.1000 17.3348 37.7677  7.1610
8 20 3  0.1000 15.6412 37.7183  7.6996
9 20 2 -0.2000 16.0240 36.8640 10.3541
10 20 3  0.1000 17.9717 36.3261  9.3399
11 20 3  0.1000 16.5251 35.8267  8.5785
12 21 1 -0.3000  9.6149 33.5224 14.9923
13 21 2 -0.2000 10.1096 34.8885 14.5418
14 21 3  0.1000 10.4651 32.7211 14.9523
15 21 3  0.1000  8.8393 33.1298 14.4938
16 21 3  0.1000  9.3888 33.5041 16.0538
17 21 2 -0.2000 10.9367 34.9046 13.3137
18 21 3  0.1000 10.4648 35.5865 15.2546
19 21 3  0.1000  9.1909 35.3081 14.2753
20 21 2 -0.2000 11.1645 36.4095 12.9074
21 21 3  0.1000 10.8127 34.2158 12.4926
22 21 3  0.1000 12.0163 34.5510 13.6855
23 22 1 -0.3000 17.6033  4.4292 39.5714
24 22 2 -0.2000 17.2790  4.5065 41.0783
25 22 3  0.1000 18.1732  5.3668 39.1929
26 22 3  0.1000 16.9020  4.0496 38.7443
27 22 3  0.1000 18.3934  3.6386 39.5424
28 22 2 -0.2000 16.9020  5.9976 41.4246
29 22 3  0.1000 17.9670  4.1334 41.8163
30 22 3  0.1000 16.3670  3.8002 41.2003
31 22 2 -0.2000 16.2880  7.0035 40.3728
32 22 3  0.1000 17.6144  6.5456 41.9844
33 22 3  0.1000 16.0895  5.9039 42.1920
34 23 1 -0.3000  7.2734 21.2548 22.9995
35 23 2 -0.2000  6.2663 21.7156 21.9828
36 23 3  0.1000  7.0566 20.2616 23.3095
37 23 3  0.1000  7.7675 21.9290 23.6995
38 23 3  0.1000  8.2052 20.9481 22.4152
39 23 2 -0.2000  5.3782 20.6261 21.3296
40 23 3  0.1000  6.5614 22.4936 21.2469
41 23 3  0.1000  5.5542 22.2217 22.5792
42 23 2 -0.2000  6.2710 19.8456 20.2867
43 23 3  0.1000  4.3959 21.0125 20.9414
44 23 3  0.1000  5.1183 19.8091 22.0961
45 24 1 -0.3000 26.5006  3.8715 26.4442
46 24 2 -0.2000 24.9648  3.8196 26.4944
47 24 3  0.1000 27.0814  3.7278 27.4266
48 24 3  0.1000 26.9373  4.4949 25.6422
49 24 3  0.1000 26.6541  2.9011 25.8354
50 24 2 -0.2000 24.2229  3.4707 27.8416
51 24 3  0.1000 24.5974  3.2290 25.6381
52 24 3  0.1000 24.6311  4.8387 26.2553
53 24 2 -0.2000 24.3011  4.4827 28.9723
54 24 3  0.1000 24.5617  2.4159 27.9305
55 24 3  0.1000 23.1485  3.4004 27.5977
56 25 1 -0.3000 21.8315 14.3839 38.8316
57 25 2 -0.2000 22.6790 13.2943 39.4415
58 25 3  0.1000 20.6941 14.0902 38.6908
59 25 3  0.1000 22.0538 14.6584 37.7667
60 25 3  0.1000 22.0205 15.2937 39.5184
61 25 2 -0.2000 22.7963 12.2113 38.5087
62 25 3  0.1000 22.4569 12.8262 40.3762
63 25 3  0.1000 23.7002 13.7242 39.5846
64 25 2 -0.2000 24.1777 11.5324 38.7064
65 25 3  0.1000 22.3851 12.3869 37.5585
66 25 3  0.1000 22.0471 11.5040 38.8953
67 26 1 -0.3000 26.6894  3.9141 18.5715
68 26 2 -0.2000 28.2299  3.8693 18.2336
69 26 3  0.1000 26.1062  4.2549 17.6606
70 26 3  0.1000 26.5114  4.3907 19.5415
71 26 3  0.1000 26.4264  2.9013 18.7205
72 26 2 -0.2000 28.8577  2.4122 18.5736
73 26 3  0.1000 28.7853  4.6837 18.8420
74 26 3  0.1000 28.3399  4.1684 17.1968
75 26 2 -0.2000 30.3058  2.1972 19.0378
76 26 3  0.1000 28.4094  1.5790 17.9707
77 26 3  0.1000 28.3322  2.1122 19.5384
78 27 1 -0.3000 22.8231 10.6165 26.1313
79 27 2 -0.2000 22.4104 11.3186 24.7181
80 27 3  0.1000 22.7883 11.2610 27.0237
81 27 3  0.1000 23.7449 10.0435 26.1512
82 27 3  0.1000 22.0089  9.8007 26.2953
83 27 2 -0.2000 20.9048 11.3519 24.5750
84 27 3  0.1000 22.9201 10.8863 23.8350
85 27 3  0.1000 22.7430 12.3546 24.8124
86 27 2 -0.2000 20.3914 12.4194 25.5525
87 27 3  0.1000 20.5786 10.2911 24.4588
88 27 3  0.1000 20.6662 11.7834 23.5591
89 28 1 -0.3000 28.8657 26.1643 11.3173
90 28 2 -0.2000 28.5027 25.3828 12.5560
91 28 3  0.1000 27.9601 26.0344 10.6509
92 28 3  0.1000 29.8709 25.9659 10.8205
93 28 3  0.1000 29.0723 27.2371 11.6165
94 28 2 -0.2000 29.6443 24.4331 12.8228
95 28 3  0.1000 27.5012 24.8681 12.3113
96 28 3  0.1000 28.3471 26.0671 13.4578
97 28 2 -0.2000 29.9710 23.4705 11.7161
98 28 3  0.1000 29.5018 23.9993 13.8248
99 28 3  0.1000 30.4442 25.1652 12.9719
100 29 1 -0.3000 31.9360 10.0756  6.3561
101 29 2 -0.2000 32.9449  8.9790  6.0658
102 29 3  0.1000 32.1773 10.6249  7.1979
103 29 3  0.1000 31.0114  9.6049  6.6696
104 29 3  0.1000 31.6158 10.8107  5.5724
105 29 2 -0.2000 33.5935  8.3871  7.3483
106 29 3  0.1000 33.6925  9.2564  5.1862
107 29 3  0.1000 32.2872  8.1744  5.6082
108 29 2 -0.2000 33.0765  8.8280  8.7667
109 29 3  0.1000 34.7250  8.2703  7.2131
110 29 3  0.1000 33.2780  7.4688  7.3227
111 30 1 -0.3000 14.2153 28.4463 34.8365
112 30 2 -0.2000 15.5441 27.6581 34.6904
113 30 3  0.1000 14.0227 29.4649 34.2936
114 30 3  0.1000 13.9330 28.5131 35.8521
115 30 3  0.1000 13.4124 27.8267 34.4156
116 30 2 -0.2000 16.7787 28.3614 35.2061
117 30 3  0.1000 15.5617 27.5614 33.5961
118 30 3  0.1000 15.3717 26.6504 35.1228
119 30 2 -0.2000 17.8293 28.8136 34.2612
120 30 3  0.1000 17.2316 27.8643 36.1308
121 30 3  0.1000 16.3562 29.2946 35.6152
122 31 1 -0.3000  5.9897  4.1656 23.9513
123 31 2 -0.2000  7.0372  4.4020 22.8266
124 31 3  0.1000  5.4189  3.3005 23.7375
125 31 3  0.1000  5.2976  4.9207 24.3077
126 31 3  0.1000  6.4178  3.9549 24.8910
127 31 2 -0.2000  8.2970  3.6104 23.1793
128 31 3  0.1000  7.2832  5.3656 22.6542
129 31 3  0.1000  6.5204  4.1219 21.9079
130 31 2 -0.2000  8.2708  2.2328 22.5582
131 31 3  0.1000  8.5794  3.6596 24.2368
132 31 3  0.1000  9.1317  4.1724 22.6404
133 32 1 -0.3000 14.3427 14.4724 34.4770
134 32 2 -0.2000 13.0282 15.0968 34.5584
135 32 3  0.1000 14.2939 13.4680 34.8861
136 32 3  0.1000 15.3425 15.0641 34.8397
137 32 3  0.1000 14.6181 14.2261 33.4518
138 32 2 -0.2000 13.1917 15.8025 35.9183
139 32 3  0.1000 12.2580 14.3875 34.5759
140 32 3  0.1000 12.6311 15.8533 33.7639
141 32 2 -0.2000 11.9675 15.6475 36.8670
142 32 3  0.1000 13.7022 16.7881 35.7414
143 32 3  0.1000 13.9189 15.2730 36.5540
144 33 1 -0.3000 20.9062  9.1441 35.1802
145 33 2 -0.2000 19.4697  8.7376 35.4484
146 33 3  0.1000 21.2046 10.0292 35.8446
147 33 3  0.1000 21.1499  9.4995 34.2275
148 33 3  0.1000 21.5690  8.2199 35.1925
149 33 2 -0.2000 19.3955  8.2856 36.9070
150 33 3  0.1000 19.0804  8.0538 34.7233
151 33 3  0.1000 18.8150  9.6675 35.2514
152 33 2 -0.2000 18.0330  8.0047 37.3924
153 33 3  0.1000 20.1607  8.7125 37.5654
154 33 3  0.1000 19.7752  7.2741 36.8888
155 34 1 -0.3000 25.5125 23.6316 14.1497
156 34 2 -0.2000 25.0983 22.1161 13.9060
157 34 3  0.1000 24.7549 24.2997 13.8390
158 34 3  0.1000 26.5880 24.0021 13.8027
159 34 3  0.1000 25.4919 23.8245 15.2577
160 34 2 -0.2000 24.5284 21.8518 12.5466
161 34 3  0.1000 24.5954 21.7722 14.7525
162 34 3  0.1000 26.0884 21.5733 13.9316
163 34 2 -0.2000 23.3397 22.8034 12.2308
164 34 3  0.1000 24.2708 20.7078 12.4098
165 34 3  0.1000 25.3224 22.0598 11.7014
166 35 1 -0.3000 25.0235 29.3817 31.7122
167 35 2 -0.2000 25.9079 30.4981 31.2374
168 35 3  0.1000 24.0787 29.1984 31.0710
169 35 3  0.1000 24.8646 29.2185 32.8502
170 35 3  0.1000 25.6679 28.4649 31.3469
171 35 2 -0.2000 26.8571 30.1467 30.0149
172 35 3  0.1000 26.4416 30.9530 32.0734
173 35 3  0.1000 25.2356 31.2391 30.9137
174 35 2 -0.2000 27.8012 31.1940 29.5099
175 35 3  0.1000 26.3875 29.4800 29.2487
176 35 3  0.1000 27.4804 29.4677 30.5272
177 36 1 -0.3000  1.7372  6.7155  1.7806
178 36 2 -0.2000  3.0063  7.3066  1.1476
179 36 3  0.1000  1.9780  5.7253  2.1394
180 36 3  0.1000  0.7529  6.6396  1.1357
181 36 3  0.1000  1.5493  7.2521  2.7468
182 36 2 -0.2000  2.8696  7.4895 -0.3603
183 36 3  0.1000  3.9545  6.7865  1.3833
184 36 3  0.1000  3.0339  8.3756  1.6837
185 36 2 -0.2000  3.7012  6.5765 -1.2294
186 36 3  0.1000  2.8612  8.5323 -0.7089
187 36 3  0.1000  1.8243  7.1677 -0.5860
188 37 1 -0.3000 30.9626  4.6958 33.9406
189 37 2 -0.2000 30.1150  4.4862 32.7048
190 37 3  0.1000 31.1239  5.7612 34.2206
191 37 3  0.1000 31.9658  4.2504 34.0310
192 37 3  0.1000 30.4939  4.2430 34.7381
193 37 2 -0.2000 30.5537  5.3472 31.5196
194 37 3  0.1000 29.1027  4.6568 32.8919
195 37 3  0.1000 30.2198  3.4042 32.4147
196 37 2 -0.2000 30.4863  6.8248 31.7720
197 37 3  0.1000 30.1710  4.9530 30.6132
198 37 3  0.1000 31.6837  5.0856 31.4710
199 20 2 -0.2000 16.4012 36.3499 11.7147
200 20 3  0.1000 14.8819 36.8027 10.1708
201 20 3  0.1000 16.0151 37.9933 10.5931
202 21 2 -0.2000 11.8520 36.5540 11.5441
203 21 3  0.1000 11.8499 36.9000 13.6248
204 21 3  0.1000 10.1838 36.9351 12.7643
205 22 2 -0.2000 14.9720  7.3973 40.7323
206 22 3  0.1000 16.4486  6.5160 39.4886
207 22 3  0.1000 16.9140  7.9116 40.2965
208 23 2 -0.2000  6.4437 20.7284 19.0940
209 23 3  0.1000  5.7199 18.9071 20.0403
210 23 3  0.1000  7.3168 19.7192 20.6280
211 24 2 -0.2000 23.1767  5.4015 28.6592
212 24 3  0.1000 25.2496  4.9505 28.9001
213 24 3  0.1000 24.1386  4.0006 29.9795
214 25 2 -0.2000 25.3890 12.3514 38.3299
215 25 3  0.1000 24.2547 10.5455 38.1410
216 25 3  0.1000 24.3363 11.3269 39.7138
217 26 2 -0.2000 31.1705  3.3172 18.6760
218 26 3  0.1000 30.6969  1.2081 18.9488
219 26 3  0.1000 30.2755  2.3384 20.1823
220 27 2 -0.2000 19.5940 11.6788 26.6408
221 27 3  0.1000 19.7901 13.0798 25.0875
222 27 3  0.1000 21.2320 13.0299 26.1109
223 28 2 -0.2000 31.5362 23.6668 11.5322
224 28 3  0.1000 29.2550 23.6270 10.8826
225 28 3  0.1000 29.7061 22.4348 12.0020
226 29 2 -0.2000 34.3083  9.5876  9.4567
227 29 3  0.1000 32.6469  7.9873  9.1622
228 29 3  0.1000 32.2847  9.6161  8.6713
229 30 2 -0.2000 18.5941 29.9051 34.9377
230 30 3  0.1000 17.4708 29.3854 33.4317
231 30 3  0.1000 18.5913 28.1152 33.8965
232 31 2 -0.2000  9.4940  1.3703 22.4440
233 31 3  0.1000  7.6348  2.2438 21.6341
234 31 3  0.1000  7.5898  1.6301 23.1793
235 32 2 -0.2000 10.6807 16.3755 36.5423
236 32 3  0.1000 12.3044 15.9242 37.8421
237 32 3  0.1000 11.6798 14.6113 37.0674
238 33 2 -0.2000 16.9306  9.0570 37.2847
239 33 3  0.1000 18.0101  7.5009 38.3596
240 33 3  0.1000 17.7330  7.1342 36.6913
241 34 2 -0.2000 22.2094 21.8736 11.6146
242 34 3  0.1000 23.4765 23.6410 11.4314
243 34 3  0.1000 23.0807 23.3814 13.1952
244 35 2 -0.2000 28.8653 31.7320 30.4568
245 35 3  0.1000 27.1652 31.9153 29.0397
246 35 3  0.1000 28.4204 30.7524 28.7226
247 36 2 -0.2000  3.0499  6.1981 -2.5368
248 36 3  0.1000  4.1741  5.7151 -0.5863
249 36 3  0.1000  4.6255  7.1560 -1.5278
250 37 2 -0.2000 28.9857  7.0696 31.8900
251 37 3  0.1000 31.0075  7.4867 31.0332
252 37 3  0.1000 31.0255  7.0503 32.6532
253 20 2 -0.2000 16.1808 34.8791 11.7421
254 20 3  0.1000 15.9081 36.8027 12.6273
255 20 3  0.1000 17.4708 36.5094 11.7934
256 21 2 -0.2000 11.3169 37.9179 11.0304
257 21 3  0.1000 11.7958 35.6277 10.9392
258 21 3  0.1000 12.9224 36.6701 11.7396
259 22 2 -0.2000 15.2045  8.2962 41.9180
260 22 3  0.1000 14.3501  6.5582 40.9163
261 22 3  0.1000 14.5298  8.0254 39.8518
262 23 2 -0.2000  6.5767 19.8418 17.8262
263 23 3  0.1000  7.2285 21.3915 19.3356
264 23 3  0.1000  5.5558 21.3046 18.9056
265 24 2 -0.2000 21.8089  4.9235 29.1310
266 24 3  0.1000 22.9194  5.8773 27.6523
267 24 3  0.1000 23.4167  6.3753 29.2500
268 25 2 -0.2000 26.5050 12.3806 39.2774
269 25 3  0.1000 25.1675 13.3968 38.0077
270 25 3  0.1000 25.7117 11.8474 37.4238
271 26 2 -0.2000 32.6755  3.2556 18.9350
272 26 3  0.1000 30.7487  4.3147 18.8644
273 26 3  0.1000 31.2133  3.3304 17.5740
274 27 2 -0.2000 18.4365 12.5037 27.1637
275 27 3  0.1000 20.1782 11.2683 27.4277
276 27 3  0.1000 19.2518 10.7982 26.0440
277 28 2 -0.2000 32.3945 22.4596 11.8534
278 28 3  0.1000 31.8643 24.5784 12.0544
279 28 3  0.1000 31.7127 23.8302 10.4736
280 29 2 -0.2000 35.0056  8.8896 10.5934
281 29 3  0.1000 34.0060 10.5558  9.7916
282 29 3  0.1000 34.9597  9.7199  8.5808
283 30 2 -0.2000 19.2034 29.0756 36.0899
284 30 3  0.1000 17.9267 30.7069 35.2424
285 30 3  0.1000 19.3486 30.3318 34.2085
286 31 2 -0.2000 10.3641  1.7560 21.2810
287 31 3  0.1000  9.2613  0.2754 22.5068
288 31 3  0.1000 10.1037  1.5460 23.3697
289 32 2 -0.2000  9.4219 15.4593 36.6265
290 32 3  0.1000 10.8522 17.0921 35.6822
291 32 3  0.1000 10.6142 17.1242 37.3997
292 33 2 -0.2000 15.9868  8.4981 36.1725
293 33 3  0.1000 17.1652 10.1134 37.2607
294 33 3  0.1000 16.3854  8.9683 38.2526
295 34 2 -0.2000 20.7488 22.3188 11.5218
296 34 3  0.1000 22.4423 20.7706 11.7594
297 34 3  0.1000 22.4592 21.8822 10.6112
298 35 2 -0.2000 29.2243 30.9694 31.6475
299 35 3  0.1000 28.7578 32.7878 30.7457
300 35 3  0.1000 29.7596 31.7061 29.9365
301 36 2 -0.2000  2.5948  4.7719 -2.5768
302 36 3  0.1000  3.8632  6.3573 -3.2951
303 36 3  0.1000  2.2482  6.8749 -2.6254
304 37 2 -0.2000 28.2820  7.2650 33.2145
305 37 3  0.1000 28.4051  6.2561 31.3573
306 37 3  0.1000 28.8418  7.9223 31.3369
307 20 2 -0.2000 16.9301 34.2575 12.9376
308 20 3  0.1000 16.3005 34.4308 10.7262
309 20 3  0.1000 15.1236 34.6624 12.0019
310 21 2 -0.2000 12.2031 39.0534 10.6314
311 21 3  0.1000 10.4733 38.3930 11.5804
312 21 3  0.1000 10.8223 37.5896 10.0978
313 22 2 -0.2000 14.0087  9.2785 42.0941
314 22 3  0.1000 16.1619  8.8582 41.7648
315 22 3  0.1000 15.3299  7.6764 42.8657
316 23 2 -0.2000  7.9672 19.7695 17.4042
317 23 3  0.1000  5.8624 20.0269 17.0759
318 23 3  0.1000  6.2523 18.8256 18.1392
319 24 2 -0.2000 20.9992  4.5120 27.8030
320 24 3  0.1000 21.4188  5.6153 29.7787
321 24 3  0.1000 21.9681  3.9920 29.7225
322 25 2 -0.2000 26.1844 12.4668 40.7622
323 25 3  0.1000 27.2962 13.1343 38.9145
324 25 3  0.1000 27.0350 11.4633 39.1604
325 26 2 -0.2000 33.1025  2.8059 20.3028
326 26 3  0.1000 33.0749  4.2309 18.8686
327 26 3  0.1000 33.2117  2.7845 18.0705
328 27 2 -0.2000 18.8167 13.8517 27.7306
329 27 3  0.1000 17.8301 11.8943 27.8287
330 27 3  0.1000 17.7311 12.7925 26.3619
331 28 2 -0.2000 31.8322 21.0692 11.3028
332 28 3  0.1000 32.5424 22.4442 12.9852
333 28 3  0.1000 33.4454 22.7188 11.4053
334 29 2 -0.2000 34.1846  8.4085 11.8132
335 29 3  0.1000 35.9259  9.5519 10.8398
336 29 3  0.1000 35.4668  7.9819 10.2147
337 30 2 -0.2000 20.5140 29.8477 36.3199
338 30 3  0.1000 19.2826 27.9193 36.0163
339 30 3  0.1000 18.5760 29.2805 36.9478
340 31 2 -0.2000 11.5563  0.7050 21.0113
341 31 3  0.1000 10.7975  2.7695 21.4375
342 31 3  0.1000  9.6812  1.8006 20.4884
343 32 2 -0.2000  8.1989 16.0635 35.8806
344 32 3  0.1000  9.2154 15.2367 37.6908
345 32 3  0.1000  9.6487 14.4967 36.1179
346 33 2 -0.2000 14.4931  8.7001 36.4865
347 33 3  0.1000 16.2019  7.4151 35.9869
348 33 3  0.1000 16.2950  9.0093 35.2026
349 34 2 -0.2000 19.9681 21.1867 11.9004
350 34 3  0.1000 20.4931 22.7768 10.5043
351 34 3  0.1000 20.5954 23.1446 12.2442
352 35 2 -0.2000 29.9849 31.7594 32.7552
353 35 3  0.1000 29.5821 30.0061 31.3832
354 35 3  0.1000 28.2091 30.6726 32.0472
355 36 2 -0.2000  1.3807  4.6210 -3.4463
356 36 3  0.1000  2.3731  4.2467 -1.6365
357 36 3  0.1000  3.3215  4.2251 -3.2142
358 37 2 -0.2000 28.8717  8.4695 34.0230
359 37 3  0.1000 28.3469  6.3361 33.7134
360 37 3  0.1000 27.2782  7.4964 32.9578
361 20 2 -0.2000 17.5332 32.9909 12.4665
362 20 3  0.1000 16.1636 33.9780 13.7915
363 20 3  0.1000 17.7302 34.8633 13.3835
364 21 2 -0.2000 12.0414 39.8890 11.9351
365 21 3  0.1000 12.0695 39.5794  9.7380
366 21 3  0.1000 13.2761 38.6374 10.6723
367 22 2 -0.2000 14.4814 10.3769 43.1035
368 22 3  0.1000 13.0526  8.8033 42.1423
369 22 3  0.1000 13.9476  9.8431 41.0685
370 23 2 -0.2000  8.1074 19.3214 15.9871
371 23 3  0.1000  8.6429 19.3543 18.1102
372 23 3  0.1000  8.3497 20.7538 17.4615
373 24 2 -0.2000 19.6123  5.0488 28.2336
374 24 3  0.1000 21.0054  3.5160 27.5562
375 24 3  0.1000 21.2261  5.1615 26.9317
376 25 2 -0.2000 27.5055 11.9311 41.4889
377 25 3  0.1000 25.2478 11.9552 41.1557
378 25 3  0.1000 26.0666 13.6064 40.9797
379 26 2 -0.2000 34.4789  2.1807 20.1648
380 26 3  0.1000 32.5052  2.0310 20.7303
381 26 3  0.1000 33.1181  3.5605 21.0455
382 27 2 -0.2000 18.0463 15.0330 27.2210
383 27 3  0.1000 19.8487 14.1702 27.5024
384 27 3  0.1000 18.7956 13.7063 28.7915
385 28 2 -0.2000 32.1682 20.5356  9.8850
386 28 3  0.1000 30.8032 20.8646 11.5895
387 28 3  0.1000 32.3863 20.3673 11.9290
388 29 2 -0.2000 33.4355  9.6699 12.3205
389 29 3  0.1000 34.6876  7.8885 12.6228
390 29 3  0.1000 33.3890  7.7520 11.4149
391 30 2 -0.2000 21.4718 29.0710 37.1483
392 30 3  0.1000 20.6026 30.9666 36.4970
393 30 3  0.1000 20.9047 29.8223 35.3352
394 31 2 -0.2000 12.0747  0.7640 19.5531
395 31 3  0.1000 11.4684 -0.2546 21.4934
396 31 3  0.1000 12.5040  1.2246 21.6140
397 32 2 -0.2000  7.9042 15.0494 34.7231
398 32 3  0.1000  8.3348 17.1315 35.4857
399 32 3  0.1000  7.3277 16.2326 36.4761
400 33 2 -0.2000 13.6625  9.3360 35.3788
401 33 3  0.1000 14.3525  8.9693 37.5829
402 33 3  0.1000 14.1146  7.6712 36.4752
403 34 2 -0.2000 20.2688 19.8981 11.0710
404 34 3  0.1000 18.8809 21.4102 12.1623
405 34 3  0.1000 20.4282 20.9880 12.8603
406 35 2 -0.2000 31.4380 31.2032 32.5660
407 35 3  0.1000 29.6336 31.7928 33.8354
408 35 3  0.1000 30.0142 32.8195 32.4367
409 36 2 -0.2000  1.4432  4.6962 -4.9744
410 36 3  0.1000  0.4437  5.0524 -3.0253
411 36 3  0.1000  1.1902  3.5132 -3.2531
412 37 2 -0.2000 27.8803  8.8178 35.0644
413 37 3  0.1000 29.2104  9.2933 33.4210
414 37 3  0.1000 29.7962  8.2130 34.6103
415 20 3  0.1000 17.0249 32.8516 11.5364
416 20 3  0.1000 17.2967 32.2028 13.1252
417 20 2 -0.2000 19.0542 32.9368 12.3126
418 21 3  0.1000 12.1214 39.3978 12.8019
419 21 3  0.1000 10.9830 40.4125 11.8871
420 21 2 -0.2000 13.0927 40.9105 11.7655
421 22 3  0.1000 14.8454 11.3085 42.6849
422 22 3  0.1000 15.2299 10.0280 43.7227
423 22 2 -0.2000 13.1368 10.5261 43.8265
424 23 3  0.1000  7.0788 19.1677 15.4571
425 23 3  0.1000  8.5384 18.2985 16.0993
426 23 2 -0.2000  9.2307 20.0678 15.3535
427 24 3  0.1000 19.3902  6.1010 27.7485
428 24 3  0.1000 19.7051  5.2658 29.3023
429 24 2 -0.2000 18.4198  4.1597 28.0858
430 25 3  0.1000 28.2581 12.0645 40.7578
431 25 3  0.1000 27.3417 10.8338 41.6259
432 25 2 -0.2000 27.9482 12.5427 42.7992
433 26 3  0.1000 34.3583  1.1842 19.7438
434 26 3  0.1000 34.8762  1.9471 21.1852
435 26 2 -0.2000 35.4401  3.2647 19.6063
436 27 3  0.1000 17.5793 15.5564 28.0377
437 27 3  0.1000 17.1963 14.6737 26.6490
438 27 2 -0.2000 18.8940 15.8023 26.1894
439 28 3  0.1000 31.5293 21.0784  9.1669
440 28 3  0.1000 31.9462 19.5278  9.8059
441 28 2 -0.2000 33.6118 20.7272  9.5519
442 29 3  0.1000 32.7389  9.3777 13.1196
443 29 3  0.1000 32.8197 10.0115 11.5253
444 29 2 -0.2000 34.3224 10.7987 12.8590
445 30 3  0.1000 22.3456 28.6389 36.5828
446 30 3  0.1000 21.0052 28.3126 37.7509
447 30 2 -0.2000 22.1072 30.2042 37.9874
448 31 3  0.1000 12.4125  1.7737 19.1832
449 31 3  0.1000 11.3086  0.5355 18.8581
450 31 2 -0.2000 13.1721 -0.4038 19.3482
451 32 3  0.1000  8.8252 14.7059 34.2479
452 32 3  0.1000  7.5767 15.6480 33.7521
453 32 2 -0.2000  6.9779 13.8599 34.8272
454 33 3  0.1000 13.7295 10.4630 35.3373
455 33 3  0.1000 12.5269  9.2575 35.5688
456 33 2 -0.2000 13.9094  8.6998 34.0543
457 34 3  0.1000 21.0282 19.3103 11.5546
458 34 3  0.1000 20.8306 20.2620 10.2843
459 34 2 -0.2000 19.1697 19.0999 10.4873
460 35 3  0.1000 32.2305 31.7980 33.0780
461 35 3  0.1000 31.6656 31.4468 31.5040
462 35 2 -0.2000 31.7314 29.6936 32.5561
463 36 3  0.1000  2.3716  5.0840 -5.3439
464 36 3  0.1000  0.7864  5.4939 -5.2113
465 36 2 -0.2000  0.8785  3.5210 -5.7507
466 37 3  0.1000 27.1878  8.0513 35.1901
467 37 3  0.1000 27.1298  9.5772 34.6570
468 37 2 -0.2000 28.5506  9.2817 36.3138
469 20 2 -0.2000 19.4792 32.5687 13.7639
470 20 3  0.1000 19.5910 33.8411 11.8968
471 20 3  0.1000 19.3320 32.1442 11.6749
472 21 2 -0.2000 14.0831 41.1566 12.9305
473 21 3  0.1000 12.7802 41.9646 11.3008
474 21 3  0.1000 13.7346 40.5454 10.9703
475 22 2 -0.2000 12.7857 11.8779 44.4731
476 22 3  0.1000 12.9662  9.7347 44.4804
477 22 3  0.1000 12.4194 10.4093 43.0102
478 23 2 -0.2000  9.2501 20.1083 13.9472
479 23 3  0.1000 10.1212 19.7592 16.0229
480 23 3  0.1000  9.0731 21.0957 15.6393
481 24 2 -0.2000 17.1993  4.4378 28.8863
482 24 3  0.1000 18.6249  3.2318 28.4408
483 24 3  0.1000 18.1988  4.0864 26.9857
484 25 2 -0.2000 27.8062 11.6376 43.9783
485 25 3  0.1000 27.3966 13.4043 42.8795
486 25 3  0.1000 28.9569 12.8469 42.7717
487 26 2 -0.2000 35.7256  3.9894 20.9676
488 26 3  0.1000 35.0868  3.9347 18.7750
489 26 3  0.1000 36.3010  2.7501 19.1961
490 27 2 -0.2000 19.8102 16.9240 26.6842
491 27 3  0.1000 18.2612 15.8882 25.3172
492 27 3  0.1000 19.5259 15.1205 25.8070
493 28 2 -0.2000 34.2211 19.8586  8.4039
494 28 3  0.1000 34.2149 20.4773 10.4089
495 28 3  0.1000 33.6789 21.7800  9.2994
496 29 2 -0.2000 33.7311 12.0971 13.3187
497 29 3  0.1000 35.2287 10.9637 12.2704
498 29 3  0.1000 34.7803 10.4025 13.7621
499 30 2 -0.2000 22.5417 29.7219 39.4415
500 30 3  0.1000 21.6086 31.1915 38.1331
501 30 3  0.1000 23.0045 30.5206 37.5078
502 31 2 -0.2000 13.0290 -0.9935 17.9561
503 31 3  0.1000 13.1286 -1.3030 20.0759
504 31 3  0.1000 14.2144 -0.0605 19.5520
505 32 2 -0.2000  5.6340 13.9173 35.6346
506 32 3  0.1000  7.5993 13.0043 34.9809
507 32 3  0.1000  6.6239 13.7361 33.8274
508 33 2 -0.2000 12.6905  8.1887 33.2394
509 33 3  0.1000 14.6528  7.9525 34.2499
510 33 3  0.1000 14.2932  9.4765 33.3305
511 34 2 -0.2000 18.1706 20.1278  9.9047
512 34 3  0.1000 18.7157 18.4181 11.3043
513 34 3  0.1000 19.4744 18.3484  9.7360
514 35 2 -0.2000 32.1742 29.2987 31.1505
515 35 3  0.1000 31.1709 29.0187 33.2612
516 35 3  0.1000 32.7088 29.6298 33.0136
517 36 2 -0.2000 -0.3620  2.9098 -5.1121
518 36 3  0.1000  1.7485  2.7161 -5.9057
519 36 3  0.1000  0.5500  3.9654 -6.6880
520 37 2 -0.2000 29.1009  8.1925 37.1593
521 37 3  0.1000 27.8353  9.9645 36.8194
522 37 3  0.1000 29.3646  9.9854 35.9500
523 20 2 -0.2000 20.5653 33.6101 14.1683
524 20 3  0.1000 19.6864 31.5202 13.9892
525 20 3  0.1000 18.6056 32.7993 14.3093
526 21 2 -0.2000 15.4067 41.6559 12.5285
527 21 3  0.1000 14.2815 40.2432 13.5762
528 21 3  0.1000 13.5720 41.9751 13.5561
529 22 2 -0.2000 12.0496 11.7633 45.7457
530 22 3  0.1000 12.3733 12.5278 43.6969
531 22 3  0.1000 13.7029 12.3697 44.7416
532 23 2 -0.2000  9.7318 21.5548 13.7022
533 23 3  0.1000  8.3820 19.7647 13.4555
534 23 3  0.1000 10.0406 19.4143 13.5735
535 24 2 -0.2000 16.7515  3.6806 30.1799
536 24 3  0.1000 16.2571  4.4264 28.3658
537 24 3  0.1000 17.3059  5.4331 29.1934
538 25 2 -0.2000 27.6903 12.2971 45.3230
539 25 3  0.1000 28.4302 10.6756 44.0343
540 25 3  0.1000 26.8153 11.3130 43.7786
541 26 2 -0.2000 35.6794  5.4767 20.5143
542 26 3  0.1000 36.7177  3.6938 21.3850
543 26 3  0.1000 34.8575  3.8103 21.7431
544 27 2 -0.2000 20.8780 17.2839 25.6200
545 27 3  0.1000 20.2898 16.6282 27.5986
546 27 3  0.1000 19.2691 17.8401 26.9783
547 28 2 -0.2000 33.7201 20.3237  6.9526
548 28 3  0.1000 33.9327 18.7259  8.6092
549 28 3  0.1000 35.3448 19.7552  8.5017
550 29 2 -0.2000 34.0999 12.3181 14.8349
551 29 3  0.1000 32.6558 12.2868 13.1525
552 29 3  0.1000 34.3571 12.8763 12.7465
553 30 2 -0.2000 23.2547 30.7073 40.3135
554 30 3  0.1000 22.9532 28.6653 39.3419
555 30 3  0.1000 21.6822 29.5185 40.0612
556 31 2 -0.2000 14.2518 -1.7762 17.4681
557 31 3  0.1000 12.4003 -0.4651 17.1311
558 31 3  0.1000 12.3850 -1.8536 18.1740
559 32 2 -0.2000  4.4292 13.2741 34.9695
560 32 3  0.1000  5.3457 14.7578 36.1611
561 32 3  0.1000  5.8214 13.3678 36.5150
562 33 2 -0.2000 12.6894  8.6135 31.8165
563 33 3  0.1000 11.8274  8.3073 33.9002
564 33 3  0.1000 12.7763  7.1226 33.1669
565 34 2 -0.2000 17.5891 19.4251  8.6143
566 34 3  0.1000 18.4995 21.1644  9.6499
567 34 3  0.1000 17.4122 20.2518 10.7353
568 35 2 -0.2000 32.9963 28.1276 30.8807
569 35 3  0.1000 32.5660 30.0881 30.5313
570 35 3  0.1000 31.2163 29.0465 30.6169
571 36 2 -0.2000 -1.6972  2.8964 -5.8583
572 36 3  0.1000 -0.4472  3.1166 -4.0703
573 36 3  0.1000 -0.1172  1.8096 -5.0898
574 37 2 -0.2000 29.2846  8.8742 38.5022
575 37 3  0.1000 29.9773  7.6452 36.7677
576 37 3  0.1000 28.2900  7.3627 37.2160
577 20 2 -0.2000 21.9471 33.2142 13.6165
578 20 3  0.1000 20.4445 33.7974 15.1461
579 20 3  0.1000 20.2783 34.5946 13.6809
580 21 2 -0.2000 16.1135 42.2328 13.8823
581 21 3  0.1000 15.3144 42.4012 11.7331
582 21 3  0.1000 15.9946 40.8236 12.0391
583 22 2 -0.2000 11.4206 13.2023 45.6759
584 22 3  0.1000 12.7433 11.6008 46.6287
585 22 3  0.1000 11.2178 11.0467 45.7191
586 23 2 -0.2000  8.5883 22.2799 13.0527
587 23 3  0.1000 10.6276 21.5613 13.0223
588 23 3  0.1000 10.0115 22.1751 14.6138
589 24 2 -0.2000 16.9951  4.3508 31.5534
590 24 3  0.1000 17.0719  2.6474 30.1018
591 24 3  0.1000 15.6772  3.5344 30.0700
592 25 2 -0.2000 27.9979 11.4039 46.4859
593 25 3  0.1000 26.7211 12.9760 45.4331
594 25 3  0.1000 28.5473 13.1073 45.3071
595 26 2 -0.2000 35.7594  6.6844 21.5173
596 26 3  0.1000 34.9278  5.5920 19.7897
597 26 3  0.1000 36.6199  5.5713 19.8852
598 27 2 -0.2000 21.9333 16.2524 25.7460
599 27 3  0.1000 21.3591 18.2650 25.8383
600 27 3  0.1000 20.4362 17.2737 24.5789
601 28 2 -0.2000 34.8376 19.7114  6.0994
602 28 3  0.1000 33.6359 21.3976  6.8590
603 28 3  0.1000 32.7896 19.8976  6.6218
604 29 2 -0.2000 33.8524 13.8987 15.1389
605 29 3  0.1000 34.9825 11.9977 15.2561
606 29 3  0.1000 33.3089 11.7256 15.4453
607 30 2 -0.2000 23.4774 32.0596 39.5408
608 30 3  0.1000 24.2027 30.4658 40.6010
609 30 3  0.1000 22.6517 30.8077 41.1810
610 31 2 -0.2000 15.5294 -0.8539 17.4507
611 31 3  0.1000 14.1534 -2.2385 16.4647
612 31 3  0.1000 14.3979 -2.6174 18.2264
613 32 2 -0.2000  3.6800 12.6171 36.1056
614 32 3  0.1000  4.6698 12.3859 34.2925
615 32 3  0.1000  3.8535 13.9438 34.3373
616 33 2 -0.2000 11.3132  8.9859 31.2359
617 33 3  0.1000 13.3171  7.8770 31.0409
618 33 3  0.1000 13.2895  9.5012 31.8133
619 34 2 -0.2000 16.3959 20.0186  7.8396
620 34 3  0.1000 17.4513 18.4066  8.9428
621 34 3  0.1000 18.3931 19.3724  7.7880
622 35 2 -0.2000 32.1691 26.8483 31.1167
623 35 3  0.1000 33.9217 28.1018 31.4363
624 35 3  0.1000 33.1206 28.2038 29.7621
625 36 2 -0.2000 -1.7473  1.6021 -6.6194
626 36 3  0.1000 -1.8461  3.7979 -6.2848
627 36 3  0.1000 -2.4485  2.9461 -5.1222
628 37 2 -0.2000 30.2525  7.9589 39.1383
629 37 3  0.1000 28.2757  8.8688 39.0403
630 37 3  0.1000 29.6817  9.9019 38.3630
631 20 2 -0.2000 23.2685 33.7631 14.1625
632 20 3  0.1000 21.9281 33.0582 12.5958
633 20 3  0.1000 22.1020 32.2020 13.9981
634 21 2 -0.2000 17.6077 41.9973 13.5578
635 21 3  0.1000 15.7720 41.9148 14.8839
636 21 3  0.1000 15.9277 43.3088 13.9906
637 22 2 -0.2000 10.2594 13.3200 46.7781
638 22 3  0.1000 11.1751 13.6420 44.7027
639 22 3  0.1000 12.2547 13.7737 45.9627
640 23 2 -0.2000  9.0194 23.6920 12.8011
641 23 3  0.1000  7.5711 22.2315 13.5622
642 23 3  0.1000  8.3296 21.7411 12.0873
643 24 2 -0.2000 17.1086  3.5323 32.8121
644 24 3  0.1000 16.3834  5.2692 31.7001
645 24 3  0.1000 17.9273  4.7871 31.3883
646 25 2 -0.2000 26.7517 10.7464 47.0062
647 25 3  0.1000 28.6472 12.0111 47.1530
648 25 3  0.1000 28.6974 10.4821 46.1483
649 26 2 -0.2000 34.4107  7.3410 21.6274
650 26 3  0.1000 36.5140  7.4553 21.1300
651 26 3  0.1000 36.1053  6.3730 22.5017
652 27 2 -0.2000 23.1922 16.9889 25.7652
653 27 3  0.1000 21.7508 15.4030 25.1460
654 27 3  0.1000 21.8491 15.9209 26.7624
655 28 2 -0.2000 34.2230 19.3256  4.7407
656 28 3  0.1000 35.5740 19.0712  6.6341
657 28 3  0.1000 35.4793 20.6357  5.9351
658 29 2 -0.2000 35.0565 14.7695 15.4037
659 29 3  0.1000 33.0328 13.9605 15.8901
660 29 3  0.1000 33.4130 14.3195 14.2577
661 30 2 -0.2000 23.9922 33.1680 40.5136
662 30 3  0.1000 22.5781 32.4565 39.0207
663 30 3  0.1000 24.2418 31.8739 38.8127
664 31 2 -0.2000 16.8028 -1.6667 17.5130
665 31 3  0.1000 15.5151 -0.0948 18.2737
666 31 3  0.1000 15.6155 -0.2490 16.5747
667 32 2 -0.2000  2.7670 13.6122 36.8041
668 32 3  0.1000  4.5600 12.1447 36.8055
669 32 3  0.1000  3.0539 11.7979 35.6722
670 33 2 -0.2000 10.7247  8.1069 30.1710
671 33 3  0.1000 11.3465 10.0232 30.9844
672 33 3  0.1000 10.6603  9.0946 32.0608
673 34 2 -0.2000 15.8632 21.2103  8.5638
674 34 3  0.1000 15.5522 19.3691  7.4620
675 34 3  0.1000 16.8165 20.4148  6.8663
676 35 2 -0.2000 32.4939 26.3641 32.4532
677 35 3  0.1000 32.3873 26.1512 30.3220
678 35 3  0.1000 31.1457 27.0546 31.0655
679 36 2 -0.2000 -3.1194  1.5964 -7.4071
680 36 3  0.1000 -1.6430  0.7085 -5.8578
681 36 3  0.1000 -0.8221  1.2991 -7.2458
682 37 2 -0.2000 30.7741  8.3575 40.5633
683 37 3  0.1000 31.0981  7.9347 38.5178
684 37 3  0.1000 29.6970  6.9032 39.1541
685 20 2 -0.2000 23.3269 35.2699 14.1193
686 20 3  0.1000 24.2307 33.4768 13.7926
687 20 3  0.1000 23.3215 33.4594 15.2452
688 21 2 -0.2000 18.0972 42.0941 12.1330
689 21 3  0.1000 17.9809 41.1742 14.0896
690 21 3  0.1000 18.0934 42.8631 14.0814
691 22 2 -0.2000  8.9283 12.5175 46.5847
692 22 3  0.1000 10.1341 14.3451 47.1089
693 22 3  0.1000 10.7219 12.9046 47.6961
694 23 2 -0.2000  8.7337 24.7727 13.7708
695 23 3  0.1000  8.7742 24.0659 11.7659
696 23 3  0.1000 10.0635 23.6751 12.7539
697 24 2 -0.2000 17.5323  4.4551 33.8883
698 24 3  0.1000 17.6681  2.5673 32.7604
699 24 3  0.1000 16.0165  3.2971 33.0403
700 25 2 -0.2000 26.7456 10.7628 48.5350
701 25 3  0.1000 26.4373  9.7787 46.5759
702 25 3  0.1000 26.0099 11.4444 46.6822
703 26 2 -0.2000 34.1841  8.7885 22.1823
704 26 3  0.1000 33.6067  6.7035 21.9641
705 26 3  0.1000 34.1050  7.3692 20.5167
706 27 2 -0.2000 24.4017 16.0615 25.4889
707 27 3  0.1000 23.2522 17.6376 26.6780
708 27 3  0.1000 23.2291 17.7143 24.9031
709 28 2 -0.2000 33.5758 20.3144  3.7445
710 28 3  0.1000 33.6124 18.4626  4.7908
711 28 3  0.1000 35.0878 18.9530  4.1738
712 29 2 -0.2000 35.5765 14.5439 16.8896
713 29 3  0.1000 35.0677 15.8349 15.0827