LAMMPS DATA FILE

4032 atoms 
 4014 bonds 
 7992 angles 
 11826 dihedrals 
 0 impropers 

 3 atom types 
 4 bond types 
 7 angle types 
 8 dihedral types 
 0 improper types 

0.00000  40.0000  xlo xhi
0.00000  40.0000  ylo yhi
0.00000  40.0000  zlo zhi

Masses

1  12.01115 
2  12.01115 
3  1.00797 

Pair Coeffs

1  0.038999995200   3.875409
2  0.038999995200   3.875409
3  0.038000001100   2.449971

Bond Coeffs

1 322.715800 1.526000 
2 340.617500 1.105000 
3 322.715800 1.526000 
4 340.617500 1.105000 

Angle Coeffs

1 46.600000 110.500000 
2 46.600000 110.500000 
3 44.400000 110.000000 
4 39.500000 106.400000 
5 44.400000 110.000000 
6 44.400000 110.000000 
7 39.500000 106.400000 

Dihedral Coeffs

1 0.158100 1 3 
2 0.158100 1 3 
3 0.158100 1 3 
4 0.158100 1 3 
5 0.158100 1 3 
6 0.158100 1 3 
7 0.158100 1 3 
8 0.158100 1 3 

Atoms

1 20 1 -0.3000  4.8162  4.7173 24.6454
2 20 2 -0.2000  4.3657  6.0994 25.0283
3 20 3  0.1000  4.8838  4.7713 23.5408
4 20 3  0.1000  3.9868  3.9195 24.8064
5 20 3  0.1000  5.7780  4.3478 25.0414
6 20 2 -0.2000  3.9707  6.2633 26.4939
7 20 3  0.1000  3.4943  6.4203 24.3811
8 20 3  0.1000  5.2771  6.6974 24.7027
9 20 2 -0.2000  5.1862  6.8279 27.0472
10 20 3  0.1000  3.7454  5.3196 26.9834
11 20 3  0.1000  3.1088  6.9141 26.5469
12 21 1 -0.3000  6.2440 10.1095 17.0722
13 21 2 -0.2000  6.6444 11.1414 15.9802
14 21 3  0.1000  6.4284 10.5376 18.0317
15 21 3  0.1000  6.4768  9.0999 16.8404
16 21 3  0.1000  5.2097 10.1027 16.9849
17 21 2 -0.2000  8.0180 10.8229 15.2275
18 21 3  0.1000  6.6591 12.0960 16.4281
19 21 3  0.1000  5.8616 11.2254 15.2013
20 21 2 -0.2000  7.8397  9.8528 14.0343
21 21 3  0.1000  8.7203 10.5599 16.0005
22 21 3  0.1000  8.3045 11.8222 14.7464
23 22 1 -0.3000 32.2691 21.0642 38.6103
24 22 2 -0.2000 32.9669 21.3647 37.3214
25 22 3  0.1000 32.1702 21.9986 39.2739
26 22 3  0.1000 32.5642 20.1638 39.3040
27 22 3  0.1000 31.2631 20.8216 38.3039
28 22 2 -0.2000 33.9716 22.5355 37.2014
29 22 3  0.1000 32.3207 21.1066 36.3814
30 22 3  0.1000 33.6278 20.4291 37.2342
31 22 2 -0.2000 33.6961 23.2499 35.8696
32 22 3  0.1000 34.8333 21.9811 37.4677
33 22 3  0.1000 33.9462 23.1905 38.0767
34 23 1 -0.3000 22.7936  5.3844 24.1822
35 23 2 -0.2000 21.5704  5.9863 23.5795
36 23 3  0.1000 22.5170  4.9531 25.1247
37 23 3  0.1000 23.8247  5.9492 24.2480
38 23 3  0.1000 23.1635  4.4950 23.6000
39 23 2 -0.2000 21.1795  7.4542 24.0749
40 23 3  0.1000 20.8718  5.1502 23.5809
41 23 3  0.1000 21.7632  6.1673 22.4623
42 23 2 -0.2000 22.3471  8.3703 24.0220
43 23 3  0.1000 20.5798  7.5197 25.0236
44 23 3  0.1000 20.4472  7.7393 23.3515
45 24 1 -0.3000 10.1347  6.5633  4.7304
46 24 2 -0.2000 11.1077  7.7093  4.8160
47 24 3  0.1000 10.3784  5.9570  3.8546
48 24 3  0.1000  9.1125  6.9339  4.7393
49 24 3  0.1000 10.2148  5.9589  5.6945
50 24 2 -0.2000 12.3264  7.6087  5.8240
51 24 3  0.1000 10.5215  8.7964  4.8287
52 24 3  0.1000 11.5846  7.7325  3.7871
53 24 2 -0.2000 13.7183  7.2538  5.2146
54 24 3  0.1000 12.0377  6.8933  6.5635
55 24 3  0.1000 12.2742  8.5566  6.4023
56 25 1 -0.3000 24.4912 39.4937  9.4979
57 25 2 -0.2000 24.8789 40.8344  8.9213
58 25 3  0.1000 24.1112 38.8167  8.7529
59 25 3  0.1000 24.0296 39.5305 10.5667
60 25 3  0.1000 25.4066 39.0755  9.6910
61 25 2 -0.2000 24.7117 40.8948  7.4571
62 25 3  0.1000 25.7323 41.3933  9.3614
63 25 3  0.1000 23.9949 41.3675  9.3249
64 25 2 -0.2000 25.5565 39.9479  6.7323
65 25 3  0.1000 25.0563 41.7889  6.9826
66 25 3  0.1000 23.6413 40.7152  7.1991
67 26 1 -0.3000 18.4016 33.3887 37.2109
68 26 2 -0.2000 19.8250 33.2317 37.6269
69 26 3  0.1000 17.8174 33.4429 38.0745
70 26 3  0.1000 17.9260 32.7866 36.3996
71 26 3  0.1000 18.2939 34.4490 36.7060
72 26 2 -0.2000 19.9894 33.2389 39.1153
73 26 3  0.1000 20.5145 33.9284 37.2300
74 26 3  0.1000 20.1507 32.2910 37.2363
75 26 2 -0.2000 21.1372 32.3738 39.6791
76 26 3  0.1000 18.9385 32.9843 39.5554
77 26 3  0.1000 20.1478 34.2463 39.4214
78 27 1 -0.3000 23.8331 27.1345 25.5087
79 27 2 -0.2000 24.0935 26.8024 27.0121
80 27 3  0.1000 24.7997 27.6105 25.2192
81 27 3  0.1000 22.8680 27.4516 25.1393
82 27 3  0.1000 23.8883 26.1245 24.9622
83 27 2 -0.2000 23.1602 27.6922 27.7504
84 27 3  0.1000 25.1007 26.4540 27.4293
85 27 3  0.1000 23.6041 25.8206 27.1007
86 27 2 -0.2000 22.4996 26.9818 28.9391
87 27 3  0.1000 22.4936 28.2156 27.0834
88 27 3  0.1000 23.9010 28.4121 28.1806
89 28 1 -0.3000 36.2032 33.0655 23.0294
90 28 2 -0.2000 37.0986 32.3713 24.1422
91 28 3  0.1000 35.5762 33.7530 23.4914
92 28 3  0.1000 35.5414 32.3299 22.4877
93 28 3  0.1000 36.8985 33.6839 22.4020
94 28 2 -0.2000 37.2369 30.8522 23.7729
95 28 3  0.1000 36.9150 32.5693 25.2125
96 28 3  0.1000 38.1088 32.7913 24.1061
97 28 2 -0.2000 37.8412 30.4497 22.3582
98 28 3  0.1000 36.2669 30.3126 23.9900
99 28 3  0.1000 37.9843 30.4113 24.4998
100 29 1 -0.3000 19.4070 16.4283  4.1694
101 29 2 -0.2000 17.9316 16.8220  4.0502
102 29 3  0.1000 19.5807 15.5095  3.5823
103 29 3  0.1000 19.8089 16.2873  5.2443
104 29 3  0.1000 20.0981 17.2177  3.7564
105 29 2 -0.2000 17.1929 16.4654  5.4166
106 29 3  0.1000 17.4556 16.3763  3.2392
107 29 3  0.1000 17.7958 17.8833  3.8540
108 29 2 -0.2000 15.7063 16.1204  5.4848
109 29 3  0.1000 17.6549 17.0876  6.2633
110 29 3  0.1000 17.6705 15.4944  5.6260
111 30 1 -0.3000 16.2919  7.1949 33.2498
112 30 2 -0.2000 16.4212  7.2394 31.7010
113 30 3  0.1000 15.9418  8.1471 33.5769
114 30 3  0.1000 17.2073  6.8794 33.8340
115 30 3  0.1000 15.5495  6.4823 33.6083
116 30 2 -0.2000 15.3961  8.0121 30.8050
117 30 3  0.1000 16.8527  6.3493 31.3575
118 30 3  0.1000 17.2529  7.8969 31.5791
119 30 2 -0.2000 16.3944  8.3918 29.7138
120 30 3  0.1000 14.6943  8.7211 31.2519
121 30 3  0.1000 14.7795  7.2528 30.4180
122 31 1 -0.3000 20.6560 31.8978  4.8247
123 31 2 -0.2000 22.0807 32.3819  4.7469
124 31 3  0.1000 19.9383 32.2986  5.5908
125 31 3  0.1000 20.6404 30.7844  4.8929
126 31 3  0.1000 20.2261 32.0559  3.8339
127 31 2 -0.2000 22.1887 33.7424  5.4720
128 31 3  0.1000 22.4231 32.3684  3.6641
129 31 3  0.1000 22.6868 31.6784  5.2763
130 31 2 -0.2000 23.5952 34.3887  5.1158
131 31 3  0.1000 21.8738 33.6349  6.5754
132 31 3  0.1000 21.5720 34.5611  5.0335
133 32 1 -0.3000 35.2836 10.4478 13.6763
134 32 2 -0.2000 33.7601 10.5770 13.8906
135 32 3  0.1000 35.5597 10.8956 12.6351
136 32 3  0.1000 35.6228  9.3977 13.6703
137 32 3  0.1000 35.8568 11.0264 14.5201
138 32 2 -0.2000 33.3984 11.0573 15.2961
139 32 3  0.1000 33.1017  9.6855 13.8358
140 32 3  0.1000 33.3272 11.2097 13.0937
141 32 2 -0.2000 32.0743 11.7089 15.4618
142 32 3  0.1000 34.1630 11.7664 15.6228
143 32 3  0.1000 33.4150 10.3069 16.0876
144 33 1 -0.3000 15.5188 23.0217  5.1434
145 33 2 -0.2000 14.7164 24.3208  4.9752
146 33 3  0.1000 16.2679 23.1765  4.4045
147 33 3  0.1000 15.0175 22.0816  4.8413
148 33 3  0.1000 15.7987 23.0393  6.1746
149 33 2 -0.2000 13.2422 24.1955  5.0668
150 33 3  0.1000 14.9408 24.6625  3.9600
151 33 3  0.1000 14.9000 25.1679  5.5974
152 33 2 -0.2000 12.4961 23.6080  6.2956
153 33 3  0.1000 12.7337 23.7848  4.0810
154 33 3  0.1000 12.8987 25.2652  5.1747
155 34 1 -0.3000  3.7541 13.4210  7.0838
156 34 2 -0.2000  2.8596 14.5791  7.4794
157 34 3  0.1000  4.1854 12.9343  7.9378
158 34 3  0.1000  4.5749 13.7796  6.4666
159 34 3  0.1000  3.1062 12.7228  6.4351
160 34 2 -0.2000  3.5053 15.2601  8.6046
161 34 3  0.1000  1.8233 14.4576  7.3559
162 34 3  0.1000  2.9174 15.2864  6.7129
163 34 2 -0.2000  2.6516 14.9562  9.9334
164 34 3  0.1000  3.6862 16.4233  8.7110
165 34 3  0.1000  4.4504 14.7613  8.7347
166 35 1 -0.3000 19.7594 19.0521  0.2247
167 35 2 -0.2000 21.0950 19.2349 -0.5399
168 35 3  0.1000 19.7050 18.0122  0.6303
169 35 3  0.1000 18.7545 19.5253 -0.1950
170 35 3  0.1000 19.9840 19.6405  1.1175
171 35 2 -0.2000 21.7041 17.8818 -0.2463
172 35 3  0.1000 21.6915 20.0039 -0.1749
173 35 3  0.1000 21.0445 19.2997 -1.6272
174 35 2 -0.2000 21.4227 16.8190 -1.2877
175 35 3  0.1000 21.5880 17.6165  0.8314
176 35 3  0.1000 22.7819 18.0659 -0.2746
177 36 1 -0.3000 32.4884 35.2049  4.0986
178 36 2 -0.2000 32.9075 33.7776  4.4890
179 36 3  0.1000 31.7864 35.5582  4.9537
180 36 3  0.1000 31.8476 35.2987  3.1665
181 36 3  0.1000 33.3398 35.9747  4.0975
182 36 2 -0.2000 33.5450 33.1613  3.1503
183 36 3  0.1000 32.0791 33.1376  4.8733
184 36 3  0.1000 33.7193 33.9180  5.1987
185 36 2 -0.2000 32.8615 31.8136  2.9839
186 36 3  0.1000 34.6901 33.0889  3.3134
187 36 3  0.1000 33.4736 33.8119  2.3190
188 37 1 -0.3000 25.2530 24.9621  6.4926
189 37 2 -0.2000 26.4442 24.0489  6.5695
190 37 3  0.1000 24.4040 24.3991  6.9117
191 37 3  0.1000 25.0691 25.3768  5.5015
192 37 3  0.1000 25.4814 25.8780  7.0686
193 37 2 -0.2000 26.3688 23.0738  5.3313
194 37 3  0.1000 26.7113 23.4343  7.5040
195 37 3  0.1000 27.2332 24.7497  6.2535
196 37 2 -0.2000 27.6567 22.6423  4.4818
197 37 3  0.1000 25.6850 23.5018  4.6244
198 37 3  0.1000 25.8329 22.1653  5.6275
199 20 2 -0.2000  5.4078  6.9434 28.5660
200 20 3  0.1000  5.4177  7.8226 26.6587
201 20 3  0.1000  6.0430  6.1482 26.6429
202 21 2 -0.2000  7.0428 10.1949 12.7440
203 21 3  0.1000  7.6666  8.8661 14.4031
204 21 3  0.1000  8.8284  9.6989 13.6613
205 22 2 -0.2000 34.1373 24.7039 35.9701
206 22 3  0.1000 32.6093 23.2348 35.5484
207 22 3  0.1000 34.3174 22.7834 35.1198
208 23 2 -0.2000 21.9884  9.8308 23.8799
209 23 3  0.1000 23.0281  8.1648 23.1154
210 23 3  0.1000 22.8935  8.2216 24.9861
211 24 2 -0.2000 14.0376  5.7966  4.8613
212 24 3  0.1000 14.5319  7.8940  5.4873
213 24 3  0.1000 13.5657  7.6495  4.3104
214 25 2 -0.2000 26.0381 40.3062  5.3143
215 25 3  0.1000 25.0629 38.9368  6.8090
216 25 3  0.1000 26.4035 39.7168  7.3812
217 26 2 -0.2000 20.6829 31.3222 40.6132
218 26 3  0.1000 22.0007 32.9464 40.1298
219 26 3  0.1000 21.6739 31.8963 38.7684
220 27 2 -0.2000 23.5944 26.2937 29.7514
221 27 3  0.1000 21.6365 26.2526 28.8229
222 27 3  0.1000 22.0481 27.7216 29.5056
223 28 2 -0.2000 39.2537 30.8717 22.1089
224 28 3  0.1000 37.1577 30.6644 21.5207
225 28 3  0.1000 37.7645 29.3721 22.5001
226 29 2 -0.2000 15.0985 15.8889  6.9419
227 29 3  0.1000 15.3802 15.1866  4.8827
228 29 3  0.1000 15.1775 16.9554  4.9837
229 30 2 -0.2000 15.6442  9.0820 28.6028
230 30 3  0.1000 17.1236  7.6750 29.2665
231 30 3  0.1000 16.9927  9.2374 30.0806
232 31 2 -0.2000 24.3620 34.3712  6.4600
233 31 3  0.1000 23.5391 35.3455  4.5482
234 31 3  0.1000 24.0215 33.6772  4.4846
235 32 2 -0.2000 32.1792 13.1880 15.1382
236 32 3  0.1000 31.5497 11.5099 16.5219
237 32 3  0.1000 31.3169 11.3137 14.6744
238 33 2 -0.2000 11.2713 24.3179  6.5452
239 33 3  0.1000 13.0445 23.5764  7.2765
240 33 3  0.1000 12.3199 22.5207  6.0738
241 34 2 -0.2000  2.3240 16.0809 10.9062
242 34 3  0.1000  3.0530 14.0263 10.4555
243 34 3  0.1000  1.6467 14.5794  9.5687
244 35 2 -0.2000 21.9343 16.9120 -2.6525
245 35 3  0.1000 20.3244 16.6640 -1.4444
246 35 3  0.1000 21.8056 15.8280 -0.9000
247 36 2 -0.2000 33.5429 30.9511  4.0292
248 36 3  0.1000 32.9496 31.3534  1.9704
249 36 3  0.1000 31.7448 31.9235  3.2351
250 37 2 -0.2000 27.8621 21.1790  4.6556
251 37 3  0.1000 28.6021 23.2124  4.7119
252 37 3  0.1000 27.3479 22.8574  3.3749
253 20 2 -0.2000  5.2352  5.6235 29.2539
254 20 3  0.1000  5.0776  7.9969 28.9152
255 20 3  0.1000  6.5141  7.1436 28.6692
256 21 2 -0.2000  7.5739  9.1876 11.6951
257 21 3  0.1000  7.0103 11.2988 12.5956
258 21 3  0.1000  6.0043  9.9415 13.0462
259 22 2 -0.2000 35.4770 25.0319 35.3964
260 22 3  0.1000 34.1639 25.1589 37.0676
261 22 3  0.1000 33.3290 25.3131 35.4428
262 23 2 -0.2000 23.2032 10.6554 24.1338
263 23 3  0.1000 21.0855  9.8689 24.5622
264 23 3  0.1000 21.7745 10.0088 22.8055
265 24 2 -0.2000 15.3219  5.4599  4.1239
266 24 3  0.1000 13.1313  5.3362  4.4614
267 24 3  0.1000 14.1924  5.3212  5.9176
268 25 2 -0.2000 27.3805 39.7316  5.0696
269 25 3  0.1000 25.8360 41.3827  5.0663
270 25 3  0.1000 25.4209 39.7747  4.6277
271 26 2 -0.2000 21.6345 30.4972 41.4559
272 26 3  0.1000 19.8259 30.7599 40.3049
273 26 3  0.1000 20.1403 31.9436 41.3949
274 27 2 -0.2000 23.4788 26.7451 31.2403
275 27 3  0.1000 24.6536 26.3480 29.3166
276 27 3  0.1000 23.3215 25.2557 29.5968
277 28 2 -0.2000 39.5575 32.3249 21.8180
278 28 3  0.1000 39.7916 30.0556 21.5878
279 28 3  0.1000 39.6180 30.8368 23.1026
280 29 2 -0.2000 15.2715 17.2375  7.7515
281 29 3  0.1000 15.3359 15.0245  7.5091
282 29 3  0.1000 14.0113 15.7245  6.7769
283 30 2 -0.2000 16.5773  9.9603 27.5713
284 30 3  0.1000 14.7431  9.5559 29.0031
285 30 3  0.1000 15.2786  8.3014 27.9960
286 31 2 -0.2000 25.7806 33.9441  6.4441
287 31 3  0.1000 23.7379 33.9640  7.2967
288 31 3  0.1000 24.4379 35.4502  6.7943
289 32 2 -0.2000 31.0465 13.9378 14.4087
290 32 3  0.1000 33.2176 13.5791 14.9608
291 32 3  0.1000 32.0383 13.6240 16.1678
292 33 2 -0.2000 10.8006 23.9823  7.9192
293 33 3  0.1000 10.6438 24.0135  5.7037
294 33 3  0.1000 11.2938 25.4900  6.4999
295 34 2 -0.2000  0.8022 16.1342 11.1343
296 34 3  0.1000  2.6296 17.1418 10.6006
297 34 3  0.1000  2.8562 16.0072 11.8112
298 35 2 -0.2000 22.1669 15.5626 -3.2396
299 35 3  0.1000 22.7451 17.5677 -2.5615
300 35 3  0.1000 21.2874 17.4664 -3.2967
301 36 2 -0.2000 34.1330 29.5651  3.5224
302 36 3  0.1000 33.1145 31.1018  5.0228
303 36 3  0.1000 34.4884 31.5043  4.1893
304 37 2 -0.2000 29.3271 20.6415  4.8229
305 37 3  0.1000 27.2792 20.5428  3.9464
306 37 3  0.1000 27.3490 20.9083  5.6344
307 20 2 -0.2000  6.2946  5.5455 30.3701
308 20 3  0.1000  5.1462  4.7021 28.6232
309 20 3  0.1000  4.2615  5.6081 29.7034
310 21 2 -0.2000  8.4167  9.6041 10.4877
311 21 3  0.1000  6.6524  8.5869 11.4285
312 21 3  0.1000  8.1271  8.3668 12.2150
313 22 2 -0.2000 35.7120 26.5421 35.0578
314 22 3  0.1000 35.5957 24.4782 34.3958
315 22 3  0.1000 36.3356 24.5857 35.9697
316 23 2 -0.2000 23.3157 11.5493 25.3849
317 23 3  0.1000 23.5829 11.1106 23.1393
318 23 3  0.1000 24.0671  9.8711 24.2549
319 24 2 -0.2000 16.2123  4.4936  4.8817
320 24 3  0.1000 15.9031  6.3455  3.7781
321 24 3  0.1000 14.9932  4.9445  3.1194
322 25 2 -0.2000 28.4084 40.7752  4.6264
323 25 3  0.1000 27.4443 38.8982  4.3199
324 25 3  0.1000 27.7752 39.2224  6.0132
325 26 2 -0.2000 21.3400 29.0249 41.5310
326 26 3  0.1000 21.7371 30.8796 42.4824
327 26 3  0.1000 22.6340 30.7222 40.9778
328 27 2 -0.2000 23.9858 25.5913 32.0627
329 27 3  0.1000 22.5270 27.1744 31.5507
330 27 3  0.1000 24.1963 27.5965 31.3567
331 28 2 -0.2000 41.1574 32.6291 21.7832
332 28 3  0.1000 38.9037 33.1381 22.2898
333 28 3  0.1000 39.2458 32.4108 20.8562
334 29 2 -0.2000 14.2763 17.3440  8.9690
335 29 3  0.1000 15.3623 18.0552  6.9965
336 29 3  0.1000 16.2512 17.2254  8.2543
337 30 2 -0.2000 17.5451  9.1723 26.7687
338 30 3  0.1000 17.0975 10.8497 28.0129
339 30 3  0.1000 15.9185 10.3958 26.8713
340 31 2 -0.2000 25.7880 32.7221  5.6022
341 31 3  0.1000 26.1615 33.5686  7.4022
342 31 3  0.1000 26.4971 34.7411  6.1592
343 32 2 -0.2000 30.6837 15.3385 14.8916
344 32 3  0.1000 30.1109 13.3336 14.1799
345 32 3  0.1000 31.4121 14.1045 13.3528
346 33 2 -0.2000  9.3160 24.2456  8.4313
347 33 3  0.1000 11.6779 24.1051  8.5542
348 33 3  0.1000 10.8237 22.8796  7.9933
349 34 2 -0.2000 -0.0181 17.0492 10.2652
350 34 3  0.1000  0.5418 16.4958 12.1216
351 34 3  0.1000  0.2697 15.1317 10.9926
352 35 2 -0.2000 23.6487 15.4633 -3.5079
353 35 3  0.1000 21.5415 15.4148 -4.1463
354 35 3  0.1000 21.7702 14.7298 -2.4950
355 36 2 -0.2000 33.8838 28.3822  4.2829
356 36 3  0.1000 35.1229 29.6196  3.2913
357 36 3  0.1000 33.5106 29.3222  2.6104
358 37 2 -0.2000 29.7315 19.4276  4.0121
359 37 3  0.1000 29.7278 20.6572  5.8252
360 37 3  0.1000 29.9363 21.4273  4.2843
361 20 2 -0.2000  5.9510  5.7346 31.8158
362 20 3  0.1000  7.3600  5.8915 30.0234
363 20 3  0.1000  6.5270  4.4362 30.3648
364 21 2 -0.2000  8.6490  8.4342  9.5121
365 21 3  0.1000  9.3326 10.1146 10.7727
366 21 3  0.1000  7.8373 10.3313  9.9757
367 22 2 -0.2000 35.1666 26.8340 33.7049
368 22 3  0.1000 36.7505 26.7912 35.1864
369 22 3  0.1000 35.2484 27.0155 35.8014
370 23 2 -0.2000 24.2167 12.8604 25.1775
371 23 3  0.1000 23.5782 11.1754 26.4198
372 23 3  0.1000 22.2736 11.8294 25.6229
373 24 2 -0.2000 17.6559  4.1636  4.3708
374 24 3  0.1000 15.6962  3.6312  5.0811
375 24 3  0.1000 16.4026  4.8379  5.9435
376 25 2 -0.2000 29.8338 40.4568  5.2644
377 25 3  0.1000 28.2753 41.8551  4.6762
378 25 3  0.1000 28.5411 40.5290  3.5890
379 26 2 -0.2000 21.9515 28.2376 40.4982
380 26 3  0.1000 20.1808 28.8734 41.7475
381 26 3  0.1000 21.8925 28.5548 42.3966
382 27 2 -0.2000 22.7932 24.7719 32.5448
383 27 3  0.1000 24.7364 25.8582 32.8520
384 27 3  0.1000 24.6317 24.8787 31.4467
385 28 2 -0.2000 41.6724 33.5408 22.9176
386 28 3  0.1000 41.4656 32.8446 20.7045
387 28 3  0.1000 41.6595 31.7019 21.9912
388 29 2 -0.2000 14.3617 18.7448  9.3863
389 29 3  0.1000 14.3900 16.6261  9.9009
390 29 3  0.1000 13.2163 17.1103  8.6900
391 30 2 -0.2000 16.8095  8.6793 25.5814
392 30 3  0.1000 18.0274  8.3474 27.3054
393 30 3  0.1000 18.3593  9.9694 26.5878
394 31 2 -0.2000 26.6946 31.7218  6.2243
395 31 3  0.1000 25.9746 33.0059  4.5315
396 31 3  0.1000 24.8073 32.2487  5.7990
397 32 2 -0.2000 29.1942 15.4029 15.0434
398 32 3  0.1000 31.0559 16.1597 14.1841
399 32 3  0.1000 31.1673 15.4664 15.8919
400 33 2 -0.2000  9.5000 25.2455  9.5490
401 33 3  0.1000  8.7670 23.3538  8.7464
402 33 3  0.1000  8.6652 24.6716  7.6346
403 34 2 -0.2000  0.2239 18.5441 10.3270
404 34 3  0.1000 -1.1864 16.7897 10.2417
405 34 3  0.1000  0.3482 16.7713  9.3166
406 35 2 -0.2000 24.3165 15.8458 -4.8278
407 35 3  0.1000 23.9773 14.5528 -3.1689
408 35 3  0.1000 24.0922 16.1583 -2.8357
409 36 2 -0.2000 34.4500 28.4029  5.6629
410 36 3  0.1000 34.0080 27.4534  3.6382
411 36 3  0.1000 32.7838 28.4183  4.3445
412 37 2 -0.2000 29.3834 19.7198  2.5526
413 37 3  0.1000 29.4692 18.3730  4.3636
414 37 3  0.1000 30.7625 19.4299  4.1571
415 20 3  0.1000  5.4976  6.6872 32.1031
416 20 3  0.1000  6.9789  5.8015 32.3378
417 20 2 -0.2000  5.1588  4.6462 32.4191
418 21 3  0.1000  8.1544  8.3445  8.5479
419 21 3  0.1000  8.2496  7.5784  9.9873
420 21 2 -0.2000 10.1094  8.1989  9.5617
421 22 3  0.1000 34.0100 27.0543 33.5709
422 22 3  0.1000 35.1399 25.8559 33.2684
423 22 2 -0.2000 36.2002 27.4525 32.7656
424 23 3  0.1000 24.1114 13.3951 24.1913
425 23 3  0.1000 25.2583 12.6132 25.2727
426 23 2 -0.2000 23.9921 13.7313 26.3525
427 24 3  0.1000 18.2657  4.9048  3.7823
428 24 3  0.1000 17.5824  3.5692  3.5107
429 24 2 -0.2000 18.4993  3.4243  5.4585
430 25 3  0.1000 29.7999 40.5539  6.3878
431 25 3  0.1000 30.5632 41.2097  4.8805
432 25 2 -0.2000 30.1546 39.1093  4.5031
433 26 3  0.1000 21.7721 28.6321 39.4721
434 26 3  0.1000 21.4933 27.3136 40.6094
435 26 2 -0.2000 23.5002 28.2166 40.6661
436 27 3  0.1000 22.6654 23.8364 32.0818
437 27 3  0.1000 21.7872 25.1985 32.3184
438 27 2 -0.2000 22.9977 24.6398 33.9852
439 28 3  0.1000 42.2267 33.2692 23.8067
440 28 3  0.1000 40.7089 34.0591 23.2879
441 28 2 -0.2000 42.4118 34.7489 22.5218
442 29 3  0.1000 15.2209 19.2240  8.8786
443 29 3  0.1000 14.5958 18.6896 10.4964
444 29 2 -0.2000 13.0655 19.5743  9.2884
445 30 3  0.1000 17.5660  8.6642 24.6718
446 30 3  0.1000 16.0870  9.5261 25.3563
447 30 2 -0.2000 16.0365  7.3831 25.7223
448 31 3  0.1000 27.3262 32.1089  7.0242
449 31 3  0.1000 27.4594 31.5152  5.5252
450 31 2 -0.2000 25.8623 30.4991  6.5258
451 32 3  0.1000 28.8990 14.9839 16.0535
452 32 3  0.1000 28.7400 14.7460 14.2742
453 32 2 -0.2000 28.6483 16.7771 14.8625
454 33 3  0.1000  8.9313 26.1653  9.3592
455 33 3  0.1000 10.5014 25.6134  9.4471
456 33 2 -0.2000  9.4701 24.5972 10.9583
457 34 3  0.1000  1.0836 18.9473  9.6822
458 34 3  0.1000  0.5580 18.7353 11.2791
459 34 2 -0.2000 -0.9963 19.5524 10.2335
460 35 3  0.1000 24.4902 16.9778 -4.7185
461 35 3  0.1000 23.4671 15.7787 -5.5783
462 35 2 -0.2000 25.4798 15.0198 -5.5320
463 36 3  0.1000 35.2016 29.0309  5.8773
464 36 3  0.1000 34.9767 27.4747  5.7375
465 36 2 -0.2000 33.3158 28.2404  6.6572
466 37 3  0.1000 30.2739 20.0828  1.9324
467 37 3  0.1000 28.6471 20.5869  2.5841
468 37 2 -0.2000 28.7543 18.5275  1.9184
469 20 2 -0.2000  3.6611  4.8857 32.5436
470 20 3  0.1000  5.7544  4.4527 33.3264
471 20 3  0.1000  5.1880  3.7164 31.7389
472 21 2 -0.2000 10.4307  7.0284 10.6026
473 21 3  0.1000 10.7663  9.0364  9.4947
474 21 3  0.1000 10.2249  7.6602  8.6271
475 22 2 -0.2000 36.0657 28.8624 32.2265
476 22 3  0.1000 36.1738 26.7369 31.9477
477 22 3  0.1000 37.2058 27.3819 33.2423
478 23 2 -0.2000 24.8780 14.9542 26.2704
479 23 3  0.1000 23.9554 13.3562 27.4230
480 23 3  0.1000 23.0201 14.1894 26.1737
481 24 2 -0.2000 19.0765  4.4925  6.4419
482 24 3  0.1000 19.0853  2.5891  5.1696
483 24 3  0.1000 17.6543  2.9447  6.0874
484 25 2 -0.2000 31.4220 39.1973  3.6300
485 25 3  0.1000 29.4291 38.6672  3.8865
486 25 3  0.1000 30.2334 38.3551  5.2811
487 26 2 -0.2000 24.2093 26.8713 40.6906
488 26 3  0.1000 23.9540 28.9615 41.3436
489 26 3  0.1000 23.7578 28.6549 39.6834
490 27 2 -0.2000 23.9615 23.5071 34.3356
491 27 3  0.1000 21.9889 24.5271 34.5274
492 27 3  0.1000 23.4953 25.5663 34.2808
493 28 2 -0.2000 43.7897 34.7179 23.0602
494 28 3  0.1000 41.8783 35.7092 22.6379
495 28 3  0.1000 42.5058 34.7432 21.3880
496 29 2 -0.2000 11.6681 18.9890  9.5014
497 29 3  0.1000 13.0623 20.3189  8.4020
498 29 3  0.1000 13.1904 20.2895 10.1646
499 30 2 -0.2000 16.4255  6.3178 24.6966
500 30 3  0.1000 15.0096  7.5366 25.6398
501 30 3  0.1000 16.1952  7.0333 26.7423
502 31 2 -0.2000 26.5639 29.6390  7.5574
503 31 3  0.1000 25.5795 29.9698  5.6302
504 31 3  0.1000 24.9456 30.8592  7.0352
505 32 2 -0.2000 27.5652 16.7702 13.7924
506 32 3  0.1000 29.3290 17.6369 14.6424
507 32 3  0.1000 28.2033 17.0528 15.9120
508 33 2 -0.2000 10.8060 24.1029 11.5383
509 33 3  0.1000  8.5078 23.9948 11.1467
510 33 3  0.1000  9.2489 25.3719 11.5888
511 34 2 -0.2000 -1.4188 19.9725  8.8004
512 34 3  0.1000 -0.9880 20.4513 10.9454
513 34 3  0.1000 -1.7878 18.8866 10.6237
514 35 2 -0.2000 26.5170 15.7886 -6.3517
515 35 3  0.1000 25.0713 14.1931 -6.0292
516 35 3  0.1000 26.0278 14.6130 -4.6744
517 36 2 -0.2000 33.4806 29.0249  7.9056
518 36 3  0.1000 33.0079 27.1919  6.8786
519 36 3  0.1000 32.4423 28.6412  6.1940
520 37 2 -0.2000 27.2909 18.5937  1.5898
521 37 3  0.1000 29.1587 17.4909  2.2133
522 37 3  0.1000 29.2064 18.5524  0.9053
523 20 2 -0.2000  3.1261  3.5779 33.0416
524 20 3  0.1000  3.4016  5.4756 31.6450
525 20 3  0.1000  3.4394  5.6042 33.3500
526 21 2 -0.2000 10.7783  5.7951  9.9731
527 21 3  0.1000  9.6443  6.9070 11.4682
528 21 3  0.1000 11.2908  7.2788 11.1583
529 22 2 -0.2000 35.7948 29.7902 33.4365
530 22 3  0.1000 35.3051 28.9280 31.4514
531 22 3  0.1000 37.0419 29.0581 31.7559
532 23 2 -0.2000 24.2303 16.0485 27.1258
533 23 3  0.1000 25.1569 15.2960 25.2326
534 23 3  0.1000 25.9011 14.7045 26.6083
535 24 2 -0.2000 19.4779  5.8680  6.0644
536 24 3  0.1000 19.7677  3.9768  7.0556
537 24 3  0.1000 18.1801  4.6198  7.1396
538 25 2 -0.2000 30.8994 39.3149  2.1730
539 25 3  0.1000 32.1329 38.3346  3.7591
540 25 3  0.1000 31.9010 40.1480  3.9054
541 26 2 -0.2000 25.6738 26.9738 40.3320
542 26 3  0.1000 23.7858 26.0554 40.1203
543 26 3  0.1000 24.0928 26.5956 41.7515
544 27 2 -0.2000 24.7654 24.1180 35.5946
545 27 3  0.1000 24.4806 23.2228 33.4290
546 27 3  0.1000 23.3791 22.5340 34.5957
547 28 2 -0.2000 44.7229 34.3528 21.8823
548 28 3  0.1000 44.0581 33.8863 23.8080
549 28 3  0.1000 44.0694 35.6859 23.5843
550 29 2 -0.2000 10.5310 20.0144  9.3682
551 29 3  0.1000 11.4996 18.3915 10.4345
552 29 3  0.1000 11.6602 18.2612  8.6982
553 30 2 -0.2000 16.6312  4.9906 25.3086
554 30 3  0.1000 17.1348  6.5403 23.9468
555 30 3  0.1000 15.4884  6.2834 24.0183
556 31 2 -0.2000 25.3659 29.0244  8.3138
557 31 3  0.1000 27.4088 30.2730  8.1686
558 31 3  0.1000 27.0459 28.7160  7.2249
559 32 2 -0.2000 26.1461 16.3371 14.1899
560 32 3  0.1000 27.8895 16.1283 12.8936
561 32 3  0.1000 27.5305 17.8748 13.4003
562 33 2 -0.2000 11.8180 25.1652 12.0014
563 33 3  0.1000 11.2278 23.3156 10.8864
564 33 3  0.1000 10.5282 23.5655 12.5183
565 34 2 -0.2000 -1.5659 21.4590  8.6796
566 34 3  0.1000 -2.3007 19.3344  8.4943
567 34 3  0.1000 -0.5806 19.6047  8.1987
568 35 2 -0.2000 27.6451 16.4731 -5.5256
569 35 3  0.1000 26.0679 16.3723 -7.1453
570 35 3  0.1000 27.1063 15.0198 -6.8655
571 36 2 -0.2000 34.6182 28.5754  8.8930
572 36 3  0.1000 32.4816 29.2901  8.4195
573 36 3  0.1000 33.8551 29.9483  7.4183
574 37 2 -0.2000 26.8577 17.2331  0.9160
575 37 3  0.1000 26.9910 19.4210  0.9149
576 37 3  0.1000 26.7547 18.7126  2.4772
577 20 2 -0.2000  2.2809  3.0523 31.9007
578 20 3  0.1000  2.6412  3.5620 34.0566
579 20 3  0.1000  3.9609  2.9522 33.2462
580 21 2 -0.2000 10.1175  4.5833 10.7936
581 21 3  0.1000 11.8365  5.7466  9.7890
582 21 3  0.1000 10.2486  5.7737  8.9500
583 22 2 -0.2000 34.5944 30.6969 33.4284
584 22 3  0.1000 36.6493 30.4561 33.7606
585 22 3  0.1000 35.6136 29.0615 34.3320
586 23 2 -0.2000 24.9229 17.3278 26.7746
587 23 3  0.1000 24.3260 16.0380 28.2457
588 23 3  0.1000 23.1346 16.0899 26.9060
589 24 2 -0.2000 20.7614  5.5280  5.4379
590 24 3  0.1000 19.5393  6.6344  6.9623
591 24 3  0.1000 18.7500  6.3066  5.3169
592 25 2 -0.2000 31.9306 39.5528  1.1124
593 25 3  0.1000 29.9951 40.0540  2.1724
594 25 3  0.1000 30.3947 38.3710  2.0243
595 26 2 -0.2000 26.5673 26.1510 41.4071
596 26 3  0.1000 26.0287 27.9757 40.1882
597 26 3  0.1000 25.8708 26.4870 39.4305
598 27 2 -0.2000 24.3253 23.5958 37.0289
599 27 3  0.1000 24.8939 25.1997 35.6567
600 27 3  0.1000 25.7620 23.7030 35.4576
601 28 2 -0.2000 46.1478 34.1093 22.4733
602 28 3  0.1000 44.6132 35.0694 21.0060
603 28 3  0.1000 44.3818 33.4009 21.3768
604 29 2 -0.2000  9.6031 19.7494 10.5387
605 29 3  0.1000 10.0675 19.9158  8.3621
606 29 3  0.1000 10.8999 20.9970  9.3978
607 30 2 -0.2000 15.4877  3.9659 25.0814
608 30 3  0.1000 16.9094  5.1730 26.3687
609 30 3  0.1000 17.5284  4.4234 24.9344
610 31 2 -0.2000 24.1667 28.6133  7.4254
611 31 3  0.1000 24.9685 29.6397  9.2550
612 31 3  0.1000 25.7336 28.0831  8.7701
613 32 2 -0.2000 25.2584 17.4021 14.8232
614 32 3  0.1000 26.0690 15.3287 14.6569
615 32 3  0.1000 25.6654 16.1764 13.2266
616 33 2 -0.2000 12.9251 24.2673 12.5587
617 33 3  0.1000 11.3228 25.5649 12.7990
618 33 3  0.1000 12.0644 25.8984 11.1978
619 34 2 -0.2000 -0.7561 22.0377  7.6234
620 34 3  0.1000 -1.6252 22.0268  9.7028
621 34 3  0.1000 -2.5850 21.5179  8.3116
622 35 2 -0.2000 28.3567 17.7133 -6.1677
623 35 3  0.1000 28.4041 15.7201 -5.0633
624 35 3  0.1000 27.1920 16.8966 -4.5514
625 36 2 -0.2000 33.8540 27.7513  9.8428
626 36 3  0.1000 35.1009 29.4300  9.3933
627 36 3  0.1000 35.3908 27.9693  8.2883
628 37 2 -0.2000 25.7819 16.4935  1.6332
629 37 3  0.1000 27.5815 16.4937  0.6644
630 37 3  0.1000 26.5099 17.5839 -0.1034
631 20 2 -0.2000  2.2744  1.5187 32.1007
632 20 3  0.1000  2.6849  3.4381 30.9854
633 20 3  0.1000  1.1447  3.4562 31.8589
634 21 2 -0.2000 11.0489  3.3803 10.6870
635 21 3  0.1000  9.0657  4.3963 10.5331
636 21 3  0.1000 10.0589  5.0454 11.8628
637 22 2 -0.2000 33.2110 29.9970 33.4008
638 22 3  0.1000 34.4335 31.4027 32.5773
639 22 3  0.1000 34.6484 31.2758 34.3809
640 23 2 -0.2000 23.9863 18.5997 26.6019
641 23 3  0.1000 25.7309 17.2142 26.0037
642 23 3  0.1000 25.5727 17.5059 27.6897
643 24 2 -0.2000 21.2097  6.8760  4.8846
644 24 3  0.1000 20.8556  4.6722  4.7178
645 24 3  0.1000 21.3857  5.2645  6.2099
646 25 2 -0.2000 32.4345 38.1591  0.9199
647 25 3  0.1000 32.5988 40.3454  1.3244
648 25 3  0.1000 31.4623 39.7930  0.1361
649 26 2 -0.2000 28.0387 26.2134 40.8302
650 26 3  0.1000 26.2359 25.0538 41.4715
651 26 3  0.1000 26.5374 26.5014 42.4542
652 27 2 -0.2000 22.8385 23.9825 36.9840
653 27 3  0.1000 24.8914 24.0014 37.8864
654 27 3  0.1000 24.3389 22.4889 37.0734
655 28 2 -0.2000 46.4470 32.6986 22.9974
656 28 3  0.1000 46.3995 34.9780 23.1455
657 28 3  0.1000 46.8344 34.2500 21.6985
658 29 2 -0.2000  8.1780 20.4164 10.2925
659 29 3  0.1000 10.0064 20.1121 11.4578
660 29 3  0.1000  9.5145 18.6286 10.6297
661 30 2 -0.2000 15.9315  2.4717 25.1009
662 30 3  0.1000 14.6985  4.1158 24.3010
663 30 3  0.1000 14.8712  4.1983 25.9953
664 31 2 -0.2000 22.9454 27.9252  7.9939
665 31 3  0.1000 24.6199 28.0576  6.5197
666 31 3  0.1000 23.7484 29.6047  7.0050
667 32 2 -0.2000 23.9023 17.5442 14.1212
668 32 3  0.1000 25.7232 18.3191 14.8901
669 32 3  0.1000 24.9187 17.2444 15.8749
670 33 2 -0.2000 13.4610 23.7519 11.2058
671 33 3  0.1000 12.5057 23.5411 13.2856
672 33 3  0.1000 13.6592 24.9014 13.1042
673 34 2 -0.2000 -1.2558 21.2772  6.3857
674 34 3  0.1000  0.2568 21.8040  7.6310
675 34 3  0.1000 -0.9459 23.1258  7.5410
676 35 2 -0.2000 29.2790 17.3368 -7.3234
677 35 3  0.1000 28.6521 18.5131 -5.4152
678 35 3  0.1000 27.6072 18.2103 -6.7926
679 36 2 -0.2000 34.3791 27.6642 11.3067
680 36 3  0.1000 33.8658 26.7376  9.4160
681 36 3  0.1000 32.8217 28.1810  9.8366
682 37 2 -0.2000 25.3430 15.2827  0.8339
683 37 3  0.1000 24.9192 17.0199  1.9796
684 37 3  0.1000 26.2750 16.0854  2.4966
685 20 2 -0.2000  0.9126  1.1848 32.5442
686 20 3  0.1000  2.9521  1.2562 32.7549
687 20 3  0.1000  2.5736  0.9955 31.2131
688 21 2 -0.2000 10.9299  2.3424  9.5506
689 21 3  0.1000 11.2958  2.9917 11.6702
690 21 3  0.1000 12.0407  3.8681 10.4962
691 22 2 -0.2000 32.8104 29.8225 34.9154
692 22 3  0.1000 33.4159 29.1533 32.8141
693 22 3  0.1000 32.5260 30.6241 32.8293
694 23 2 -0.2000 24.3745 20.0124 27.2293
695 23 3  0.1000 22.9334 18.3793 26.9597
696 23 3  0.1000 23.8427 18.6679 25.5813
697 24 2 -0.2000 22.4975  6.8237  3.9141
698 24 3  0.1000 21.3590  7.5143  5.8361
699 24 3  0.1000 20.3859  7.4220  4.3062
700 25 2 -0.2000 32.9626 38.0076 -0.4713
701 25 3  0.1000 31.7204 37.3188  1.0129
702 25 3  0.1000 33.2500 37.9832  1.6866
703 26 2 -0.2000 28.8426 25.4400 41.8864
704 26 3  0.1000 28.3033 27.2346 40.7776
705 26 3  0.1000 28.1160 25.7216 39.8721
706 27 2 -0.2000 22.0944 23.0958 38.1256
707 27 3  0.1000 22.3280 23.6740 36.1029
708 27 3  0.1000 22.7162 25.0387 37.1883
709 28 2 -0.2000 47.2338 32.5442 24.2425
710 28 3  0.1000 46.8198 32.0999 22.2671
711 28 3  0.1000 45.5072 32.1603 23.0960
712 29 2 -0.2000  7.4666 20.9486 11.4501
713 29 3  0.1000  7.4927 19.9286  9.5554