LAMMPS DATA FILE

4032 atoms 
 4014 bonds 
 7992 angles 
 11826 dihedrals 
 0 impropers 

 3 atom types 
 4 bond types 
 7 angle types 
 8 dihedral types 
 0 improper types 

0.00000  40.0000  xlo xhi
0.00000  40.0000  ylo yhi
0.00000  40.0000  zlo zhi

Masses

1  12.01115 
2  12.01115 
3  1.00797 

Pair Coeffs

1  0.038999995200   3.875409
2  0.038999995200   3.875409
3  0.038000001100   2.449971

Bond Coeffs

1 322.715800 1.526000 
2 340.617500 1.105000 
3 322.715800 1.526000 
4 340.617500 1.105000 

Angle Coeffs

1 46.600000 110.500000 
2 46.600000 110.500000 
3 44.400000 110.000000 
4 39.500000 106.400000 
5 44.400000 110.000000 
6 44.400000 110.000000 
7 39.500000 106.400000 

Dihedral Coeffs

1 0.158100 1 3 
2 0.158100 1 3 
3 0.158100 1 3 
4 0.158100 1 3 
5 0.158100 1 3 
6 0.158100 1 3 
7 0.158100 1 3 
8 0.158100 1 3 

Atoms

1 20 1 -0.3000 14.0840 14.9873  7.5931
2 20 2 -0.2000 14.9927 14.6973  6.3942
3 20 3  0.1000 13.3447 15.6356  7.2476
4 20 3  0.1000 14.6069 15.3463  8.4684
5 20 3  0.1000 13.5045 14.0376  7.8072
6 20 2 -0.2000 16.1144 15.7005  6.2728
7 20 3  0.1000 14.5258 14.4638  5.3870
8 20 3  0.1000 15.4495 13.7891  6.6732
9 20 2 -0.2000 17.5605 15.2159  6.2369
10 20 3  0.1000 16.0488 16.3900  7.1400
11 20 3  0.1000 15.9109 16.4100  5.4781
12 21 1 -0.3000  5.9800 36.8221 16.9985
13 21 2 -0.2000  6.4857 37.4255 18.2598
14 21 3  0.1000  4.8573 36.5769 16.9623
15 21 3  0.1000  6.5791 36.0308 16.5235
16 21 3  0.1000  6.0735 37.6136 16.2952
17 21 2 -0.2000  5.7743 37.1916 19.6374
18 21 3  0.1000  6.6780 38.5616 18.0582
19 21 3  0.1000  7.5601 37.0066 18.4094
20 21 2 -0.2000  6.8707 36.9571 20.7693
21 21 3  0.1000  4.9567 36.4392 19.9256
22 21 3  0.1000  5.4014 38.1955 19.9140
23 22 1 -0.3000 24.8875 27.1577  3.5382
24 22 2 -0.2000 24.0813 26.6278  4.7079
25 22 3  0.1000 25.3912 26.3778  2.9240
26 22 3  0.1000 25.5890 27.9012  3.6930
27 22 3  0.1000 24.2061 27.5524  2.7747
28 22 2 -0.2000 24.6544 25.3510  5.2754
29 22 3  0.1000 23.1082 26.5198  4.3520
30 22 3  0.1000 24.1011 27.5096  5.3986
31 22 2 -0.2000 24.6749 25.3178  6.8769
32 22 3  0.1000 25.6707 25.1881  4.8573
33 22 3  0.1000 23.9225 24.5738  4.9909
34 23 1 -0.3000 38.5041 24.1114  7.5749
35 23 2 -0.2000 39.6237 24.1484  8.6105
36 23 3  0.1000 37.7623 24.9860  7.8305
37 23 3  0.1000 37.9423 23.2151  7.1459
38 23 3  0.1000 38.9163 24.4562  6.6624
39 23 2 -0.2000 40.3994 22.8595  8.8878
40 23 3  0.1000 39.5215 24.7040  9.5750
41 23 3  0.1000 40.3418 24.7460  8.0186
42 23 2 -0.2000 39.7928 21.6092  9.5060
43 23 3  0.1000 41.3301 23.0892  9.5948
44 23 3  0.1000 40.9105 22.5210  7.9968
45 24 1 -0.3000 20.3695 29.0780 12.2574
46 24 2 -0.2000 20.5484 29.7665 10.9199
47 24 3  0.1000 19.7167 29.7022 12.8189
48 24 3  0.1000 21.1707 28.4580 12.8261
49 24 3  0.1000 19.6800 28.2390 11.9358
50 24 2 -0.2000 21.0240 28.6959  9.9726
51 24 3  0.1000 21.3429 30.6184 10.9581
52 24 3  0.1000 19.5527 30.2600 10.6783
53 24 2 -0.2000 22.4023 29.1938  9.5865
54 24 3  0.1000 20.3090 28.4797  9.1568
55 24 3  0.1000 21.0656 27.7523 10.4429
56 25 1 -0.3000 32.0714 39.9933  1.4347
57 25 2 -0.2000 32.8892 41.2316  1.3722
58 25 3  0.1000 32.4861 39.4338  2.3030
59 25 3  0.1000 31.7158 39.3005  0.5558
60 25 3  0.1000 31.0248 40.3285  1.7209
61 25 2 -0.2000 32.1842 42.3453  0.4981
62 25 3  0.1000 34.0262 41.0637  1.1901
63 25 3  0.1000 32.9087 41.4893  2.4432
64 25 2 -0.2000 33.2624 43.2520  0.0399
65 25 3  0.1000 31.5910 42.9507  1.2229
66 25 3  0.1000 31.6284 41.8594 -0.3497
67 26 1 -0.3000 12.5416  2.7656 14.5804
68 26 2 -0.2000 13.8071  3.1206 15.4750
69 26 3  0.1000 12.8607  2.7402 13.5323
70 26 3  0.1000 11.7050  3.5061 14.9013
71 26 3  0.1000 12.3027  1.7810 14.6986
72 26 2 -0.2000 15.0019  3.3511 14.7087
73 26 3  0.1000 14.0635  2.4554 16.3921
74 26 3  0.1000 13.6155  4.1003 15.9852
75 26 2 -0.2000 16.1571  4.1828 15.3346
76 26 3  0.1000 14.7449  3.5409 13.5571
77 26 3  0.1000 15.4188  2.3208 14.7276
78 27 1 -0.3000 21.8339 24.9825 25.0676
79 27 2 -0.2000 22.2605 26.4066 24.7675
80 27 3  0.1000 21.0689 24.8421 25.7964
81 27 3  0.1000 22.4667 24.0433 25.1235
82 27 3  0.1000 21.3158 24.6852 24.0794
83 27 2 -0.2000 21.3951 27.0588 23.6678
84 27 3  0.1000 23.3433 26.5285 24.7174
85 27 3  0.1000 22.0393 26.8959 25.6509
86 27 2 -0.2000 22.0494 27.7287 22.3965
87 27 3  0.1000 20.5710 27.6877 23.9883
88 27 3  0.1000 20.9390 26.2027 23.2621
89 28 1 -0.3000 20.6945 39.2595 30.3706
90 28 2 -0.2000 20.2566 37.9144 29.7599
91 28 3  0.1000 21.7256 39.4302 30.1175
92 28 3  0.1000 20.5153 39.3360 31.5031
93 28 3  0.1000 20.1142 40.1099 29.8355
94 28 2 -0.2000 20.9145 37.3067 28.4669
95 28 3  0.1000 19.1250 37.9148 29.7566
96 28 3  0.1000 20.4519 37.0842 30.5692
97 28 2 -0.2000 21.1044 38.4648 27.4593
98 28 3  0.1000 20.6596 36.2690 28.1030
99 28 3  0.1000 21.8355 37.0333 28.8784
100 29 1 -0.3000 31.2482 31.3419 30.8725
101 29 2 -0.2000 31.7612 32.7655 30.3292
102 29 3  0.1000 30.5954 31.4074 31.7759
103 29 3  0.1000 32.0559 30.5852 31.1179
104 29 3  0.1000 30.5138 30.9328 30.1418
105 29 2 -0.2000 33.2564 32.9088 30.2364
106 29 3  0.1000 31.2009 33.5176 30.7830
107 29 3  0.1000 31.4553 32.8384 29.2779
108 29 2 -0.2000 33.3874 34.1260 29.3752
109 29 3  0.1000 33.8192 32.0504 29.9213
110 29 3  0.1000 33.6739 33.1430 31.3318
111 30 1 -0.3000  9.9134 35.2951  1.2136
112 30 2 -0.2000 10.8449 35.3529 -0.0207
113 30 3  0.1000  9.5290 36.2597  1.3150
114 30 3  0.1000 10.6416 34.9805  2.0637
115 30 3  0.1000  9.1802 34.5399  1.1109
116 30 2 -0.2000 10.2777 34.6626 -1.3765
117 30 3  0.1000 11.9320 35.1730  0.2647
118 30 3  0.1000 10.8886 36.4499 -0.3114
119 30 2 -0.2000 11.6695 33.9809 -1.9419
120 30 3  0.1000  9.8063 35.3086 -2.1632
121 30 3  0.1000  9.5645 33.9289 -1.1635
122 31 1 -0.3000 19.4392  5.4010 26.6854
123 31 2 -0.2000 20.7870  5.5291 25.9854
124 31 3  0.1000 19.4856  5.9267 27.7089
125 31 3  0.1000 18.9437  4.4399 26.5853
126 31 3  0.1000 18.6571  6.1035 26.2351
127 31 2 -0.2000 20.8823  4.4371 24.8839
128 31 3  0.1000 21.7276  5.6093 26.6198
129 31 3  0.1000 20.7761  6.4629 25.3522
130 31 2 -0.2000 21.3204  3.1793 25.6396
131 31 3  0.1000 21.4088  4.9179 24.0186
132 31 3  0.1000 19.8967  4.2212 24.5168
133 32 1 -0.3000 17.3533 17.2071 16.8004
134 32 2 -0.2000 18.3796 18.2784 17.2472
135 32 3  0.1000 16.6100 16.9801 17.5325
136 32 3  0.1000 17.8024 16.4512 16.2570
137 32 3  0.1000 16.7297 17.7526 16.0791
138 32 2 -0.2000 19.8813 17.9396 17.3918
139 32 3  0.1000 17.9558 18.8759 18.0380
140 32 3  0.1000 18.3548 18.8669 16.3919
141 32 2 -0.2000 20.3718 16.5366 17.1327
142 32 3  0.1000 20.2082 18.3353 18.4029
143 32 3  0.1000 20.3602 18.4910 16.6132
144 33 1 -0.3000 14.8936  8.3693 13.1121
145 33 2 -0.2000 14.4027  9.3367 12.0071
146 33 3  0.1000 15.8918  7.9360 12.8720
147 33 3  0.1000 14.2173  7.4521 13.2618
148 33 3  0.1000 15.0866  8.9197 14.0684
149 33 2 -0.2000 13.0162  9.7731 12.4480
150 33 3  0.1000 14.4010  8.9932 10.9464
151 33 3  0.1000 15.1309 10.2696 12.0651
152 33 2 -0.2000 12.5042 11.0821 11.7244
153 33 3  0.1000 12.9556  9.8736 13.5747
154 33 3  0.1000 12.3529  9.0260 12.1977
155 34 1 -0.3000 11.5669 22.0894  0.0441
156 34 2 -0.2000 12.0885 21.1550  1.0071
157 34 3  0.1000 10.4174 21.9287  0.0228
158 34 3  0.1000 11.9124 22.2875 -1.0102
159 34 3  0.1000 11.6291 23.0459  0.6274
160 34 2 -0.2000 12.4957 20.0555  0.0571
161 34 3  0.1000 11.3587 20.8127  1.7514
162 34 3  0.1000 12.8519 21.6138  1.6665
163 34 2 -0.2000 13.6437 20.5124 -0.8011
164 34 3  0.1000 11.6709 19.5616 -0.5206
165 34 3  0.1000 12.8273 19.3020  0.7042
166 35 1 -0.3000 39.9889  6.7160  8.3728
167 35 2 -0.2000 39.5541  5.4083  9.0410
168 35 3  0.1000 41.0314  6.7611  7.9753
169 35 3  0.1000 39.8228  7.6767  9.0446
170 35 3  0.1000 39.4207  6.9252  7.5129
171 35 2 -0.2000 38.0396  5.7143  9.2081
172 35 3  0.1000 40.1619  5.1976  9.9048
173 35 3  0.1000 39.6601  4.5105  8.3231
174 35 2 -0.2000 37.8451  6.1890 10.6080
175 35 3  0.1000 37.3427  4.9097  8.8990
176 35 3  0.1000 37.7490  6.5970  8.6530
177 36 1 -0.3000  1.4645 31.3902 18.1249
178 36 2 -0.2000  1.9954 30.3323 19.0941
179 36 3  0.1000  0.7254 30.9235 17.3829
180 36 3  0.1000  2.1585 32.0883 17.6599
181 36 3  0.1000  0.7774 32.0258 18.6900
182 36 2 -0.2000  2.2066 28.9660 18.3017
183 36 3  0.1000  1.4865 30.0911 19.9459
184 36 3  0.1000  2.8923 30.7237 19.5259
185 36 2 -0.2000  1.1102 28.0997 18.9313
186 36 3  0.1000  3.3152 28.7092 18.4429
187 36 3  0.1000  1.9555 29.0119 17.1842
188 37 1 -0.3000 19.9268 22.7164 31.4441
189 37 2 -0.2000 19.6974 23.2339 32.8549
190 37 3  0.1000 20.9189 23.2324 31.1701
191 37 3  0.1000 19.2793 22.9464 30.6971
192 37 3  0.1000 20.0585 21.6277 31.4119
193 37 2 -0.2000 19.0068 22.1539 33.7206
194 37 3  0.1000 19.0049 24.0562 32.7746
195 37 3  0.1000 20.6795 23.5905 33.2634
196 37 2 -0.2000 17.9713 22.8221 34.5684
197 37 3  0.1000 19.7628 21.7097 34.3666
198 37 3  0.1000 18.5336 21.3984 33.0839
199 20 2 -0.2000 18.0230 15.2588  4.7902
200 20 3  0.1000 17.6239 14.1711  6.5944
201 20 3  0.1000 18.2813 15.9094  6.8885
202 21 2 -0.2000  6.3621 35.5785 21.2188
203 21 3  0.1000  7.0267 37.6833 21.6403
204 21 3  0.1000  7.9321 36.9274 20.3488
205 22 2 -0.2000 24.2108 24.0516  7.5490
206 22 3  0.1000 24.2713 26.2188  7.3725
207 22 3  0.1000 25.7245 25.4007  7.1089
208 23 2 -0.2000 39.6272 21.9010 11.0047
209 23 3  0.1000 40.5170 20.8188  9.1169
210 23 3  0.1000 38.7226 21.2760  9.0289
211 24 2 -0.2000 23.5168 29.1985 10.6935
212 24 3  0.1000 22.2798 30.1702  9.0862
213 24 3  0.1000 22.7315 28.5455  8.7252
214 25 2 -0.2000 33.1434 44.5319  0.9156
215 25 3  0.1000 33.3000 43.6447 -1.0152
216 25 3  0.1000 34.2808 42.7294  0.2331
217 26 2 -0.2000 17.0352  4.4741 14.1197
218 26 3  0.1000 16.7534  3.8689 16.2178
219 26 3  0.1000 15.6096  5.0544 15.7050
220 27 2 -0.2000 22.2462 26.7474 21.3233
221 27 3  0.1000 22.8603 28.3188 22.7382
222 27 3  0.1000 21.3701 28.4417 22.0434
223 28 2 -0.2000 22.6263 38.6401 27.1613
224 28 3  0.1000 20.5415 39.4238 27.7244
225 28 3  0.1000 20.6089 38.2292 26.4637
226 29 2 -0.2000 34.4521 35.1691 29.8524
227 29 3  0.1000 32.4024 34.6584 29.3118
228 29 3  0.1000 33.5767 33.7582 28.4626
229 30 2 -0.2000 12.1246 34.2291 -3.2884
230 30 3  0.1000 11.9075 32.8870 -1.5033
231 30 3  0.1000 12.4452 34.6012 -1.3761
232 31 2 -0.2000 22.5067  2.4591 25.1643
233 31 3  0.1000 20.5700  2.2738 25.7202
234 31 3  0.1000 21.4485  3.3977 26.6860
235 32 2 -0.2000 21.1357 16.4289 15.8898
236 32 3  0.1000 19.8153 15.7155 17.4822
237 32 3  0.1000 21.2034 16.4590 17.8603
238 33 2 -0.2000 11.4745 10.4513 10.6821
239 33 3  0.1000 13.4429 11.5177 11.0845
240 33 3  0.1000 12.0695 11.9350 12.4849
241 34 2 -0.2000 14.2018 19.2965 -1.3794
242 34 3  0.1000 14.2451 21.2841 -0.3423
243 34 3  0.1000 13.2861 21.1255 -1.6949
244 35 2 -0.2000 37.8347  7.6203 10.8331
245 35 3  0.1000 38.6441  5.7126 11.3114
246 35 3  0.1000 36.8584  5.7125 10.8342
247 36 2 -0.2000 -0.2648 28.4209 18.2963
248 36 3  0.1000  1.2943 27.8940 20.0114
249 36 3  0.1000  1.3378 27.0253 18.5762
250 37 2 -0.2000 16.9063 23.4606 33.6949
251 37 3  0.1000 18.3063 23.4898 35.3135
252 37 3  0.1000 17.4963 22.0913 35.2522
253 20 2 -0.2000 18.6351 13.9802  4.1872
254 20 3  0.1000 18.6587 16.1945  4.5697
255 20 3  0.1000 17.1782 15.4109  4.1158
256 21 2 -0.2000  6.8191 34.5446 20.2203
257 21 3  0.1000  5.2312 35.4837 21.3071
258 21 3  0.1000  6.7704 35.3270 22.2163
259 22 2 -0.2000 25.0269 23.8008  8.8517
260 22 3  0.1000 23.9470 23.1664  6.9333
261 22 3  0.1000 23.2350 24.2807  7.9713
262 23 2 -0.2000 40.4483 21.0335 11.9406
263 23 3  0.1000 38.5412 22.1493 11.1591
264 23 3  0.1000 40.0755 22.9484 11.0954
265 24 2 -0.2000 24.8038 29.7738 10.1220
266 24 3  0.1000 23.5661 28.1912 11.2420
267 24 3  0.1000 23.1343 29.9403 11.4630
268 25 2 -0.2000 34.4041 45.2704  0.3965
269 25 3  0.1000 33.1670 44.2864  2.0667
270 25 3  0.1000 32.2055 45.1045  0.7171
271 26 2 -0.2000 18.5507  4.6393 14.3288
272 26 3  0.1000 16.5356  5.3965 13.7996
273 26 3  0.1000 16.7372  3.7495 13.2506
274 27 2 -0.2000 23.7918 26.5550 21.5014
275 27 3  0.1000 21.9825 27.0628 20.3116
276 27 3  0.1000 21.7652 25.8175 21.4667
277 28 2 -0.2000 23.1022 39.4082 26.0439
278 28 3  0.1000 22.9516 37.5893 27.1313
279 28 3  0.1000 23.0732 39.0581 28.0205
280 29 2 -0.2000 34.6260 36.4537 28.9970
281 29 3  0.1000 35.4560 34.7371 30.0094
282 29 3  0.1000 34.1221 35.4765 30.8594
283 30 2 -0.2000 13.5518 34.6133 -3.3345
284 30 3  0.1000 11.5980 35.0036 -3.8860
285 30 3  0.1000 12.0442 33.2130 -3.6961
286 31 2 -0.2000 23.5185  3.3358 24.4694
287 31 3  0.1000 22.4540  1.4570 24.6767
288 31 3  0.1000 23.0322  2.3478 26.0580
289 32 2 -0.2000 22.6236 16.7294 16.2575
290 32 3  0.1000 20.6652 16.8117 14.9978
291 32 3  0.1000 21.2057 15.3026 15.6132
292 33 2 -0.2000  9.9799 10.5654 10.8469
293 33 3  0.1000 11.5723  9.4725 10.2191
294 33 3  0.1000 11.6416 11.0041  9.7880
295 34 2 -0.2000 15.3343 18.7731 -0.5012
296 34 3  0.1000 14.3754 19.2576 -2.4516
297 34 3  0.1000 13.3735 18.6638 -1.3145
298 35 2 -0.2000 36.6659  8.2046 11.5615
299 35 3  0.1000 37.8931  8.2657  9.8535
300 35 3  0.1000 38.7475  7.8596 11.3808
301 36 2 -0.2000 -0.4951 27.9255 16.8781
302 36 3  0.1000 -0.5941 29.5221 18.4633
303 36 3  0.1000 -0.9422 27.8661 18.9636
304 37 2 -0.2000 15.5769 23.5583 34.4048
305 37 3  0.1000 16.9064 23.0632 32.6430
306 37 3  0.1000 17.1472 24.4749 33.4468
307 20 2 -0.2000 20.1010 14.0283  4.0142
308 20 3  0.1000 18.0694 13.6312  3.3256
309 20 3  0.1000 18.5057 13.1672  4.9364
310 21 2 -0.2000  7.9176 33.7191 20.8704
311 21 3  0.1000  7.2343 35.0767 19.3650
312 21 3  0.1000  5.8683 33.9275 19.8836
313 22 2 -0.2000 26.4587 23.2301  8.5373
314 22 3  0.1000 24.4608 23.2712  9.6657
315 22 3  0.1000 25.2252 24.7302  9.3511
316 23 2 -0.2000 39.5322 20.0254 12.7215
317 23 3  0.1000 40.9520 21.6327 12.6041
318 23 3  0.1000 41.1820 20.4555 11.3235
319 24 2 -0.2000 25.8956 28.7393 10.2215
320 24 3  0.1000 24.9667 30.7644 10.6267
321 24 3  0.1000 24.5924 29.9654  9.0903
322 25 2 -0.2000 34.4707 46.7569  0.3525
323 25 3  0.1000 34.6146 44.9527 -0.6426
324 25 3  0.1000 35.2428 44.8166  0.9993
325 26 2 -0.2000 19.4346  3.8378 13.2423
326 26 3  0.1000 18.8150  4.4803 15.3804
327 26 3  0.1000 18.7800  5.7218 14.2283
328 27 2 -0.2000 24.8298 27.6915 21.2956
329 27 3  0.1000 24.1105 25.5727 20.9012
330 27 3  0.1000 23.9072 26.1974 22.4445
331 28 2 -0.2000 24.4481 40.1169 26.3408
332 28 3  0.1000 22.2500 40.0922 25.8138
333 28 3  0.1000 23.0309 38.8017 25.2479
334 29 2 -0.2000 34.9688 36.1262 27.5186
335 29 3  0.1000 35.2740 37.2393 29.4027
336 29 3  0.1000 33.7107 36.8768 28.9574
337 30 2 -0.2000 14.3825 34.5002 -4.6296
338 30 3  0.1000 14.1166 34.5245 -2.4645
339 30 3  0.1000 13.4281 35.7037 -3.2863
340 31 2 -0.2000 24.1442  4.4582 25.1903
341 31 3  0.1000 22.9403  3.6988 23.5953
342 31 3  0.1000 24.2368  2.6799 24.0105
343 32 2 -0.2000 23.4058 17.5656 15.1979
344 32 3  0.1000 23.1301 15.8373 16.6166
345 32 3  0.1000 22.7638 17.3797 17.1038
346 33 2 -0.2000  9.5237  9.4538 11.8300
347 33 3  0.1000  9.6007 10.5148  9.8920
348 33 3  0.1000  9.7776 11.5946 11.2245
349 34 2 -0.2000 16.1530 19.8567  0.2299
350 34 3  0.1000 15.9961 17.9212 -0.9454
351 34 3  0.1000 14.7551 18.3478  0.3882
352 35 2 -0.2000 36.5299  9.6466 11.3660
353 35 3  0.1000 36.7611  7.9146 12.6166
354 35 3  0.1000 35.7385  7.7581 11.1436
355 36 2 -0.2000 -0.2550 26.3884 16.7542
356 36 3  0.1000  0.1992 28.5058 16.1996
357 36 3  0.1000 -1.5522 28.1712 16.4910
358 37 2 -0.2000 14.7792 22.1930 34.5389
359 37 3  0.1000 15.0957 24.4182 33.8402
360 37 3  0.1000 15.7834 23.9528 35.4616
361 20 2 -0.2000 20.2674 14.8567  2.6447
362 20 3  0.1000 20.5686 12.9996  4.1666
363 20 3  0.1000 20.6134 14.7364  4.8075
364 21 2 -0.2000  7.6246 32.2236 20.9797
365 21 3  0.1000  8.5654 34.3088 21.5326
366 21 3  0.1000  8.6835 33.7336 20.0148
367 22 2 -0.2000 26.9581 22.3189  9.6855
368 22 3  0.1000 27.0599 24.1276  8.2005
369 22 3  0.1000 26.4196 22.6032  7.6067
370 23 2 -0.2000 39.5663 19.8502 14.2068
371 23 3  0.1000 39.4999 19.0153 12.2222
372 23 3  0.1000 38.4640 20.4721 12.5748
373 24 2 -0.2000 27.1665 29.2114  9.6155
374 24 3  0.1000 25.6197 27.7502  9.9228
375 24 3  0.1000 26.1454 28.8339 11.2617
376 25 2 -0.2000 33.1221 47.2622  1.0423
377 25 3  0.1000 34.8145 47.3745 -0.5957
378 25 3  0.1000 35.1987 47.0938  1.0596
379 26 2 -0.2000 19.2831  2.4021 13.5820
380 26 3  0.1000 20.4237  4.1000 13.0807
381 26 3  0.1000 18.9653  3.9569 12.2966
382 27 2 -0.2000 26.2276 27.1135 21.5781
383 27 3  0.1000 24.6535 28.6920 21.7188
384 27 3  0.1000 24.8280 27.9883 20.2692
385 28 2 -0.2000 25.6995 39.1577 26.6732
386 28 3  0.1000 24.3131 41.1109 27.0142
387 28 3  0.1000 24.6937 40.6180 25.4691
388 29 2 -0.2000 34.7491 37.3248 26.6413
389 29 3  0.1000 34.6193 35.2437 27.2041
390 29 3  0.1000 36.1214 35.9243 27.5644
391 30 2 -0.2000 14.4071 35.8941 -5.3487
392 30 3  0.1000 14.0030 33.6840 -5.4013
393 30 3  0.1000 15.4831 34.3852 -4.4120
394 31 2 -0.2000 25.7015  4.2320 24.8483
395 31 3  0.1000 23.8992  4.4249 26.1828
396 31 3  0.1000 23.6972  5.4597 24.6979
397 32 2 -0.2000 24.4107 18.6402 15.7208
398 32 3  0.1000 22.7866 18.0896 14.5035
399 32 3  0.1000 24.0472 16.8074 14.5763
400 33 2 -0.2000  8.7060  9.9820 13.0538
401 33 3  0.1000 10.2008  8.5824 12.0999
402 33 3  0.1000  8.7204  8.9147 11.2059
403 34 2 -0.2000 17.5720 19.4665  0.4841
404 34 3  0.1000 15.7847 20.4572  1.0703
405 34 3  0.1000 16.3286 20.6270 -0.5322
406 35 2 -0.2000 36.5723 10.3060  9.9225
407 35 3  0.1000 37.0620 10.2013 12.1520
408 35 3  0.1000 35.4710  9.7467 11.5774
409 36 2 -0.2000  0.8909 25.9229 15.9202
410 36 3  0.1000 -1.1838 25.7315 16.5588
411 36 3  0.1000 -0.0366 26.1149 17.7282
412 37 2 -0.2000 14.0485 21.7026 33.2677
413 37 3  0.1000 14.2650 22.3335 35.5283
414 37 3  0.1000 15.4771 21.3925 34.6553
415 20 3  0.1000 20.3018 15.9172  2.8296
416 20 3  0.1000 19.3702 14.6849  1.8861
417 20 2 -0.2000 21.4667 14.3605  1.7955
418 21 3  0.1000  8.5363 31.6598 20.7710
419 21 3  0.1000  6.9361 31.9850 20.0960
420 21 2 -0.2000  7.0981 31.9706 22.4313
421 22 3  0.1000 27.0823 22.8406 10.5981
422 22 3  0.1000 27.9654 21.8119  9.3954
423 22 2 -0.2000 26.0349 21.2027  9.9714
424 23 3  0.1000 40.2712 20.4087 14.7714
425 23 3  0.1000 39.9511 18.8240 14.2762
426 23 2 -0.2000 38.1172 19.6887 14.7088
427 24 3  0.1000 27.3705 30.2092  9.8892
428 24 3  0.1000 27.0338 29.3204  8.5495
429 24 2 -0.2000 28.3148 28.1206  9.7746
430 25 3  0.1000 32.8197 46.5625  1.8027
431 25 3  0.1000 32.3132 47.0964  0.3113
432 25 2 -0.2000 33.0014 48.7082  1.4341
433 26 3  0.1000 19.4051  2.2427 14.6531
434 26 3  0.1000 20.2104  1.9400 13.1666
435 26 2 -0.2000 18.1565  1.5610 12.9528
436 27 3  0.1000 26.1459 26.1005 21.8899
437 27 3  0.1000 26.5491 27.5383 22.4842
438 27 2 -0.2000 27.2832 27.5766 20.5565
439 28 3  0.1000 26.5918 39.7870 26.5953
440 28 3  0.1000 25.6863 38.1918 26.0046
441 28 2 -0.2000 25.5934 38.6626 28.1440
442 29 3  0.1000 33.6656 37.5374 26.5610
443 29 3  0.1000 35.0765 36.9769 25.7077
444 29 2 -0.2000 35.6232 38.5364 26.9145
445 30 3  0.1000 13.3606 36.3748 -5.4137
446 30 3  0.1000 14.6608 35.5910 -6.3513
447 30 2 -0.2000 15.4652 36.9214 -4.9050
448 31 3  0.1000 25.8437  4.0952 23.7594
449 31 3  0.1000 26.0123  3.2528 25.1249
450 31 2 -0.2000 26.7142  5.2410 25.3593
451 32 3  0.1000 24.7686 18.5278 16.7654
452 32 3  0.1000 23.9593 19.5422 15.8479
453 32 2 -0.2000 25.5229 18.7999 14.6715
454 33 3  0.1000  7.7037 10.3405 12.8339
455 33 3  0.1000  9.2906 10.8293 13.6528
456 33 2 -0.2000  8.7082  8.8484 14.0861
457 34 3  0.1000 17.9104 18.9537 -0.4238
458 34 3  0.1000 17.6499 18.7298  1.3727
459 34 2 -0.2000 18.3801 20.7501  0.9910
460 35 3  0.1000 36.3634  9.4682  9.2815
461 35 3  0.1000 37.6463 10.5677  9.7932
462 35 2 -0.2000 35.6026 11.5284  9.8513
463 36 3  0.1000  1.9045 26.4677 16.0354
464 36 3  0.1000  0.6162 26.0723 14.8715
465 36 2 -0.2000  0.9900 24.3479 15.9607
466 37 3  0.1000 13.8599 22.3888 32.4884
467 37 3  0.1000 12.9476 21.6323 33.6829
468 37 2 -0.2000 14.2673 20.2034 32.9469
469 20 2 -0.2000 22.6015 13.9781  2.6938
470 20 3  0.1000 21.6327 15.3072  1.1994
471 20 3  0.1000 21.2140 13.3903  1.2498
472 21 2 -0.2000  6.4281 30.6345 22.6134
473 21 3  0.1000  6.4251 32.7353 22.8989
474 21 3  0.1000  8.0481 31.8515 23.0846
475 22 2 -0.2000 26.7111 20.1619 10.7794
476 22 3  0.1000 25.4744 20.9279  9.0668
477 22 3  0.1000 25.2086 21.6541 10.6183
478 23 2 -0.2000 38.0335 20.6029 16.0407
479 23 3  0.1000 37.9746 18.6544 14.8243
480 23 3  0.1000 37.4679 20.0964 13.9765
481 24 2 -0.2000 27.9578 26.6027  9.7429
482 24 3  0.1000 29.0857 28.4089 10.4976
483 24 3  0.1000 28.8640 28.2831  8.7735
484 25 2 -0.2000 33.1249 48.8386  2.9592
485 25 3  0.1000 32.0155 49.1644  1.0342
486 25 3  0.1000 33.7453 49.3269  0.9646
487 26 2 -0.2000 18.5242  0.4457 12.0193
488 26 3  0.1000 17.3397  2.1245 12.5136
489 26 3  0.1000 17.6898  1.0418 13.8420
490 27 2 -0.2000 28.4576 28.3831 21.1293
491 27 3  0.1000 26.9824 27.9343 19.5787
492 27 3  0.1000 27.7513 26.5939 20.3501
493 28 2 -0.2000 24.9562 39.6754 29.1315
494 28 3  0.1000 26.4939 38.0918 28.5374
495 28 3  0.1000 24.8231 37.8334 28.0924
496 29 2 -0.2000 35.6540 39.5595 25.8390
497 29 3  0.1000 36.6737 38.2278 27.3406
498 29 3  0.1000 35.1203 39.0520 27.7590
499 30 2 -0.2000 16.7314 37.2791 -5.8071
500 30 3  0.1000 15.7158 36.9603 -3.8735
501 30 3  0.1000 14.8624 37.8733 -5.0560
502 31 2 -0.2000 27.0317  6.5699 24.7352
503 31 3  0.1000 27.6355  4.6780 25.6237
504 31 3  0.1000 26.4186  5.4989 26.3454
505 32 2 -0.2000 26.5756 17.8314 14.6094
506 32 3  0.1000 26.0587 19.7565 14.8185
507 32 3  0.1000 25.0427 18.8062 13.6920
508 33 2 -0.2000  7.4271  8.8376 14.8948
509 33 3  0.1000  9.5738  8.7943 14.7723
510 33 3  0.1000  8.8534  7.9126 13.5387
511 34 2 -0.2000 19.7686 20.5510  1.6854
512 34 3  0.1000 17.7878 21.4870  1.5749
513 34 3  0.1000 18.5863 21.3440  0.0037
514 35 2 -0.2000 36.1560 12.5239 10.8392
515 35 3  0.1000 34.5840 11.2627  9.8627
516 35 3  0.1000 35.8054 12.1607  8.8908
517 36 2 -0.2000 -0.0924 23.3216 16.4296
518 36 3  0.1000  1.9207 24.0803 16.4381
519 36 3  0.1000  1.1446 24.1187 14.8992
520 37 2 -0.2000 15.7466 20.0059 32.4610
521 37 3  0.1000 13.5441 19.9070 32.2345
522 37 3  0.1000 14.1516 19.4032 33.7754
523 20 2 -0.2000 23.8103 13.3287  2.0517
524 20 3  0.1000 22.2497 13.6282  3.7149
525 20 3  0.1000 23.0098 14.9140  3.0185
526 21 2 -0.2000  6.4106 30.3753 24.1052
527 21 3  0.1000  6.8740 29.8268 22.1159
528 21 3  0.1000  5.3534 30.7527 22.2728
529 22 2 -0.2000 26.9461 18.7746 10.0435
530 22 3  0.1000 26.3548 20.0763 11.7043
531 22 3  0.1000 27.7332 20.4941 10.9546
532 23 2 -0.2000 36.9825 20.1830 16.9719
533 23 3  0.1000 37.8565 21.7234 16.0200
534 23 3  0.1000 38.9450 20.3922 16.5467
535 24 2 -0.2000 28.2188 26.2300 11.1234
536 24 3  0.1000 28.4955 26.0939  8.9688
537 24 3  0.1000 26.9138 26.4965  9.4891
538 25 2 -0.2000 33.3217 50.3381  3.1004
539 25 3  0.1000 33.9546 48.2841  3.3037
540 25 3  0.1000 32.1140 48.5261  3.3875
541 26 2 -0.2000 17.8983 -1.0158 12.3534
542 26 3  0.1000 19.6324  0.5305 11.9005
543 26 3  0.1000 18.1115  0.7552 10.9976
544 27 2 -0.2000 29.7320 28.5649 20.2772
545 27 3  0.1000 28.7292 28.0946 22.1171
546 27 3  0.1000 28.0378 29.4361 21.2967
547 28 2 -0.2000 26.1037 40.2224 29.9929
548 28 3  0.1000 24.0930 39.2805 29.7566
549 28 3  0.1000 24.5725 40.4651 28.5391
550 29 2 -0.2000 37.1563 39.9481 25.6008
551 29 3  0.1000 34.8630 40.4186 26.1044
552 29 3  0.1000 35.1721 39.0532 25.0511
553 30 2 -0.2000 16.4695 37.7462 -7.2905
554 30 3  0.1000 17.5160 36.6115 -5.6304
555 30 3  0.1000 17.1460 38.2706 -5.2685
556 31 2 -0.2000 28.4653  6.9935 24.9462
557 31 3  0.1000 26.1862  7.2648 24.9887
558 31 3  0.1000 26.9830  6.5489 23.5980
559 32 2 -0.2000 27.3849 17.9085 13.3521
560 32 3  0.1000 26.4106 16.8141 14.9585
561 32 3  0.1000 27.2421 18.2319 15.5145
562 33 2 -0.2000  7.3300  7.9722 16.1180
563 33 3  0.1000  6.5902  8.7442 14.1395
564 33 3  0.1000  7.3242  9.9025 15.3022
565 34 2 -0.2000 19.8369 19.9226  3.0700
566 34 3  0.1000 20.5681 21.2929  1.4117
567 34 3  0.1000 20.1362 19.6573  1.0252
568 35 2 -0.2000 35.3203 12.6314 12.1257
569 35 3  0.1000 36.4535 13.4457 10.3728
570 35 3  0.1000 37.1252 12.0287 11.0928
571 36 2 -0.2000 -0.0937 23.1086 17.8971
572 36 3  0.1000  0.2108 22.3382 15.9823
573 36 3  0.1000 -1.0186 23.6870 16.0742
574 37 2 -0.2000 16.1162 18.6029 32.0483
575 37 3  0.1000 16.4018 20.5667 33.1521
576 37 3  0.1000 15.8198 20.6027 31.5324
577 20 2 -0.2000 24.1303 11.8860  2.4993
578 20 3  0.1000 24.6593 14.0108  2.1959
579 20 3  0.1000 23.6867 13.1734  1.0310
580 21 2 -0.2000  6.1595 28.9142 24.3958
581 21 3  0.1000  5.7550 31.0632 24.7375
582 21 3  0.1000  7.4077 30.6129 24.4907
583 22 2 -0.2000 25.8136 18.1996  9.3383
584 22 3  0.1000 27.5033 18.0657 10.6080
585 22 3  0.1000 27.7321 19.0541  9.3179
586 23 2 -0.2000 37.3102 19.1446 18.0726
587 23 3  0.1000 35.9689 19.7623 16.6069
588 23 3  0.1000 36.7941 21.1097 17.4735
589 24 2 -0.2000 29.6561 25.7600 11.6209
590 24 3  0.1000 27.4921 25.5079 11.5160
591 24 3  0.1000 27.9223 27.0140 11.8188
592 25 2 -0.2000 32.0237 51.1404  3.0738
593 25 3  0.1000 34.2410 50.5841  2.4993
594 25 3  0.1000 33.7942 50.4931  4.1169
595 26 2 -0.2000 16.4405 -1.0044 12.7553
596 26 3  0.1000 18.5597 -1.4439 13.0824
597 26 3  0.1000 17.8349 -1.6346 11.3754
598 27 2 -0.2000 29.5303 29.4968 19.0700
599 27 3  0.1000 30.3525 27.6948 20.0291
600 27 3  0.1000 30.4386 29.0549 20.9598
601 28 2 -0.2000 25.9784 40.3564 31.5483
602 28 3  0.1000 26.5744 41.0676 29.5310
603 28 3  0.1000 26.8746 39.4260 29.7565
604 29 2 -0.2000 38.1493 38.8706 25.0814
605 29 3  0.1000 37.5733 40.5474 26.4261
606 29 3  0.1000 37.1082 40.6650 24.7643
607 30 2 -0.2000 16.2465 39.2890 -6.9994
608 30 3  0.1000 15.7073 37.0985 -7.8723
609 30 3  0.1000 17.4610 37.7036 -7.8325
610 31 2 -0.2000 28.4618  8.4456 25.2617
611 31 3  0.1000 29.1172  6.6850 24.0652
612 31 3  0.1000 28.9844  6.3474 25.7619
613 32 2 -0.2000 28.9386 18.0210 13.7514
614 32 3  0.1000 27.1543 18.5511 12.5680
615 32 3  0.1000 27.1649 16.9382 12.8959
616 33 2 -0.2000  8.2534  6.8454 16.0540
617 33 3  0.1000  6.2950  7.6984 16.3291
618 33 3  0.1000  7.6910  8.5747 17.0255
619 34 2 -0.2000 19.9812 20.9631  4.2569
620 34 3  0.1000 20.6354 19.2470  3.1589
621 34 3  0.1000 18.8837 19.3470  3.1277
622 35 2 -0.2000 34.3379 13.8080 11.8793
623 35 3  0.1000 35.9406 12.6617 13.0513
624 35 3  0.1000 34.7058 11.6452 12.1532
625 36 2 -0.2000  1.0900 22.0637 18.1708
626 36 3  0.1000 -1.0610 22.6331 18.3027
627 36 3  0.1000  0.0749 24.1168 18.3429
628 37 2 -0.2000 16.4302 17.9279 33.3583
629 37 3  0.1000 16.9166 18.5515 31.3124
630 37 3  0.1000 15.2895 18.2332 31.3890
631 20 2 -0.2000 24.8415 11.8622  3.9132
632 20 3  0.1000 24.4873 11.1318  1.8107
633 20 3  0.1000 23.1586 11.3571  2.7404
634 21 2 -0.2000  4.9545 29.0976 25.3376
635 21 3  0.1000  6.9865 28.4101 24.9333
636 21 3  0.1000  5.9136 28.2466 23.5019
637 22 2 -0.2000 26.2953 17.6655  8.0948
638 22 3  0.1000 24.8536 18.8141  9.2126
639 22 3  0.1000 25.5537 17.2563  9.9406
640 23 2 -0.2000 36.0779 18.6446 18.9153
641 23 3  0.1000 38.2585 19.4360 18.5565
642 23 3  0.1000 37.5971 18.2173 17.5095
643 24 2 -0.2000 29.9330 25.4119 13.0644
644 24 3  0.1000 30.4904 26.3394 11.1582
645 24 3  0.1000 29.7008 24.7200 11.1983
646 25 2 -0.2000 32.1660 52.7109  3.2193
647 25 3  0.1000 31.2036 50.8777  3.8170
648 25 3  0.1000 31.5792 50.9757  2.0663
649 26 2 -0.2000 15.4081 -0.6939 11.5157
650 26 3  0.1000 16.2164 -0.4192 13.6734
651 26 3  0.1000 16.1918 -1.9487 13.0670
652 27 2 -0.2000 28.8281 30.8019 19.3803
653 27 3  0.1000 29.1179 28.8312 18.3430
654 27 3  0.1000 30.5183 29.7600 18.5747
655 28 2 -0.2000 25.0555 39.3118 31.9873
656 28 3  0.1000 25.6223 41.3591 31.8576
657 28 3  0.1000 26.9884 40.3153 32.0119
658 29 2 -0.2000 39.5550 39.2796 25.6799
659 29 3  0.1000 38.0622 38.8745 23.9851
660 29 3  0.1000 37.8464 37.8837 25.5179
661 30 2 -0.2000 16.2215 39.7461 -8.3850
662 30 3  0.1000 17.0294 39.8133 -6.3489
663 30 3  0.1000 15.2605 39.4332 -6.5527
664 31 2 -0.2000 29.6364  9.2283 25.6539
665 31 3  0.1000 27.5643  8.5306 25.8702
666 31 3  0.1000 28.1358  8.8544 24.3510
667 32 2 -0.2000 29.7775 18.7673 12.7358
668 32 3  0.1000 29.5196 17.1242 14.1323
669 32 3  0.1000 28.8827 18.5338 14.7635
670 33 2 -0.2000  8.3143  5.7771 17.0768
671 33 3  0.1000  9.1961  7.3725 15.8560
672 33 3  0.1000  8.1887  6.3882 15.0498
673 34 2 -0.2000 19.3672 22.3846  4.1626
674 34 3  0.1000 20.9851 21.1331  4.5209
675 34 3  0.1000 19.6071 20.4227  5.1893
676 35 2 -0.2000 34.8278 15.1494 11.3129
677 35 3  0.1000 33.6440 13.8872 12.6782
678 35 3  0.1000 33.6124 13.4995 11.0068
679 36 2 -0.2000  2.0696 22.6692 19.1550
680 36 3  0.1000  1.5233 21.5724 17.2293
681 36 3  0.1000  0.6302 21.0891 18.6157
682 37 2 -0.2000 17.9181 17.9124 33.7838
683 37 3  0.1000 15.9646 16.8734 33.3464
684 37 3  0.1000 15.8238 18.5606 34.2127
685 20 2 -0.2000 24.0148 11.6422  5.1783
686 20 3  0.1000 25.5288 12.6727  3.9680
687 20 3  0.1000 25.4947 10.9870  3.8665
688 21 2 -0.2000  3.6754 29.3954 24.4683
689 21 3  0.1000  5.1119 29.6189 26.3182
690 21 3  0.1000  4.6339 28.0524 25.7570
691 22 2 -0.2000 27.5160 16.8113  8.3171
692 22 3  0.1000 26.3376 18.5965  7.3254
693 22 3  0.1000 25.5562 16.9742  7.7714
694 23 2 -0.2000 36.4410 17.4044 19.6439
695 23 3  0.1000 35.2003 18.7524 18.4741
696 23 3  0.1000 35.9240 19.3284 19.7771
697 24 2 -0.2000 29.4689 24.0034 13.4317
698 24 3  0.1000 29.5737 26.2335 13.8216
699 24 3  0.1000 31.0418 25.5243 13.3065
700 25 2 -0.2000 32.6437 53.3097  1.8896
701 25 3  0.1000 32.7355 53.0599  4.0220
702 25 3  0.1000 31.0602 52.9217  3.3784
703 26 2 -0.2000 15.4359 -1.8903 10.5933
704 26 3  0.1000 15.5356  0.2898 10.9831
705 26 3  0.1000 14.5483 -0.7112 12.0992
706 27 2 -0.2000 29.7859 31.7495 20.0836
707 27 3  0.1000 27.8788 30.8175 19.7774
708 27 3  0.1000 28.5446 31.1974 18.3639
709 28 2 -0.2000 25.6796 38.6184 33.1754
710 28 3  0.1000 24.9016 38.4997 31.2602
711 28 3  0.1000 24.0969 39.6370 32.3881
712 29 2 -0.2000 39.8103 39.0618 27.1384
713 29 3  0.1000 39.8392 40.2962 25.3453