LAMMPS DATA FILE

4032 atoms 
 4014 bonds 
 7992 angles 
 11826 dihedrals 
 0 impropers 

 3 atom types 
 4 bond types 
 7 angle types 
 8 dihedral types 
 0 improper types 

0.00000  40.0000  xlo xhi
0.00000  40.0000  ylo yhi
0.00000  40.0000  zlo zhi

Masses

1  12.01115 
2  12.01115 
3  1.00797 

Pair Coeffs

1  0.038999995200   3.875409
2  0.038999995200   3.875409
3  0.038000001100   2.449971

Bond Coeffs

1 322.715800 1.526000 
2 340.617500 1.105000 
3 322.715800 1.526000 
4 340.617500 1.105000 

Angle Coeffs

1 46.600000 110.500000 
2 46.600000 110.500000 
3 44.400000 110.000000 
4 39.500000 106.400000 
5 44.400000 110.000000 
6 44.400000 110.000000 
7 39.500000 106.400000 

Dihedral Coeffs

1 0.158100 1 3 
2 0.158100 1 3 
3 0.158100 1 3 
4 0.158100 1 3 
5 0.158100 1 3 
6 0.158100 1 3 
7 0.158100 1 3 
8 0.158100 1 3 

Atoms

1 20 1 -0.3000 22.1578  5.8348 35.2128
2 20 2 -0.2000 20.7645  5.3158 35.5768
3 20 3  0.1000 22.8349  5.3608 35.9616
4 20 3  0.1000 22.1219  6.8767 35.4007
5 20 3  0.1000 22.3699  5.6293 34.1215
6 20 2 -0.2000 20.6882  4.2489 36.6983
7 20 3  0.1000 20.3956  4.9360 34.6298
8 20 3  0.1000 20.1131  6.1464 35.9705
9 20 2 -0.2000 19.4752  3.3780 36.2802
10 20 3  0.1000 20.7955  4.6457 37.8152
11 20 3  0.1000 21.5143  3.5899 36.5431
12 21 1 -0.3000 23.2180  5.7903 26.5421
13 21 2 -0.2000 23.9195  6.8466 27.3390
14 21 3  0.1000 22.1719  5.9192 26.7265
15 21 3  0.1000 23.3643  4.7122 26.6623
16 21 3  0.1000 23.2789  5.8100 25.4443
17 21 2 -0.2000 24.2529  6.0848 28.6953
18 21 3  0.1000 23.4017  7.7631 27.2913
19 21 3  0.1000 24.9019  6.9999 26.8010
20 21 2 -0.2000 25.1972  6.8231 29.6418
21 21 3  0.1000 24.5676  5.0503 28.4957
22 21 3  0.1000 23.1702  6.0958 29.1927
23 22 1 -0.3000 25.2977 29.9629 32.1641
24 22 2 -0.2000 24.6521 30.7509 30.9280
25 22 3  0.1000 26.2763 30.4052 32.6196
26 22 3  0.1000 25.7892 28.9520 31.9354
27 22 3  0.1000 24.6221 29.8168 32.9492
28 22 2 -0.2000 25.5169 32.0321 30.6492
29 22 3  0.1000 23.6005 31.1144 31.1403
30 22 3  0.1000 24.7709 30.1147 30.0280
31 22 2 -0.2000 24.9322 33.3498 31.2553
32 22 3  0.1000 25.8132 32.0208 29.5747
33 22 3  0.1000 26.4635 31.8548 31.1145
34 23 1 -0.3000  4.1780 22.2158 32.9731
35 23 2 -0.2000  5.6301 22.6729 33.1771
36 23 3  0.1000  3.8740 22.5943 31.9376
37 23 3  0.1000  3.5155 22.7431 33.6379
38 23 3  0.1000  4.0085 21.0922 33.2729
39 23 2 -0.2000  6.2870 23.7945 32.4907
40 23 3  0.1000  6.2810 21.7020 33.0659
41 23 3  0.1000  5.6361 22.9116 34.2604
42 23 2 -0.2000  5.4346 24.9397 31.7765
43 23 3  0.1000  6.9763 23.4876 31.7717
44 23 3  0.1000  6.8646 24.2433 33.2801
45 24 1 -0.3000 21.4855 15.7928 30.2768
46 24 2 -0.2000 20.3590 14.8638 30.6645
47 24 3  0.1000 21.3801 16.7456 30.7984
48 24 3  0.1000 21.9405 15.8171 29.3180
49 24 3  0.1000 22.3560 15.4120 30.7939
50 24 2 -0.2000 20.7526 14.0760 31.9344
51 24 3  0.1000 20.0444 14.0668 29.8878
52 24 3  0.1000 19.4549 15.4530 30.7486
53 24 2 -0.2000 21.0692 15.0169 33.1486
54 24 3  0.1000 21.5033 13.3824 31.5243
55 24 3  0.1000 19.9462 13.2996 32.1727
56 25 1 -0.3000 37.4518  7.1835 33.7117
57 25 2 -0.2000 38.1008  6.2171 32.9187
58 25 3  0.1000 38.0335  8.1769 33.6659
59 25 3  0.1000 37.2587  6.8751 34.7129
60 25 3  0.1000 36.4172  7.3735 33.2329
61 25 2 -0.2000 38.6000  6.5474 31.5693
62 25 3  0.1000 37.5342  5.2229 32.8671
63 25 3  0.1000 38.9697  5.9567 33.5379
64 25 2 -0.2000 37.8631  7.4471 30.6129
65 25 3  0.1000 38.9904  5.7093 30.9774
66 25 3  0.1000 39.5173  7.1336 31.7521
67 26 1 -0.3000 10.8527  2.8792 29.1734
68 26 2 -0.2000 11.3539  4.2224 29.7501
69 26 3  0.1000 10.5402  2.1716 29.9436
70 26 3  0.1000 11.5007  2.3786 28.4145
71 26 3  0.1000  9.9726  3.0973 28.4642
72 26 2 -0.2000 12.0849  4.1996 30.9728
73 26 3  0.1000 10.6606  5.0846 29.5869
74 26 3  0.1000 12.1377  4.5575 29.0444
75 26 2 -0.2000 11.6975  5.2422 31.9655
76 26 3  0.1000 13.1373  4.3653 30.7648
77 26 3  0.1000 11.9893  3.1473 31.3197
78 27 1 -0.3000 18.7749 16.7071 27.2653
79 27 2 -0.2000 17.3650 17.2923 27.4667
80 27 3  0.1000 19.0120 16.9095 26.1341
81 27 3  0.1000 19.1688 15.7278 27.5135
82 27 3  0.1000 19.3963 17.4065 27.8598
83 27 2 -0.2000 17.2061 18.5817 26.5998
84 27 3  0.1000 17.1973 17.5575 28.5726
85 27 3  0.1000 16.6482 16.5112 27.2040
86 27 2 -0.2000 16.2008 19.5334 27.1918
87 27 3  0.1000 17.0853 18.3491 25.5208
88 27 3  0.1000 18.1558 19.0746 26.5784
89 28 1 -0.3000 28.6276 34.6745 36.6946
90 28 2 -0.2000 27.8418 33.5557 36.0660
91 28 3  0.1000 29.0287 35.3635 35.9499
92 28 3  0.1000 29.3146 34.4066 37.5088
93 28 3  0.1000 27.9877 35.2471 37.3564
94 28 2 -0.2000 28.2441 32.2891 36.8751
95 28 3  0.1000 27.9343 33.4181 34.9359
96 28 3  0.1000 26.7871 33.6759 36.2462
97 28 2 -0.2000 29.6815 32.0471 36.4289
98 28 3  0.1000 27.6714 31.4112 36.4591
99 28 3  0.1000 28.0474 32.3859 37.9677
100 29 1 -0.3000 12.6531  4.8766  9.5956
101 29 2 -0.2000 12.8181  3.7351  8.5166
102 29 3  0.1000 12.8397  4.4713 10.6956
103 29 3  0.1000 11.6833  5.3189  9.6213
104 29 3  0.1000 13.3668  5.6178  9.4243
105 29 2 -0.2000 13.6616  2.5298  8.9344
106 29 3  0.1000 12.9555  3.9926  7.5384
107 29 3  0.1000 11.7468  3.4345  8.4984
108 29 2 -0.2000 13.8978  2.2035 10.4009
109 29 3  0.1000 14.5917  2.4487  8.2366
110 29 3  0.1000 12.9899  1.7077  8.6035
111 30 1 -0.3000 17.0946 37.9870  6.0993
112 30 2 -0.2000 17.1486 36.8171  5.1711
113 30 3  0.1000 16.2476 38.6954  6.0195
114 30 3  0.1000 18.1166 38.4528  6.0755
115 30 3  0.1000 17.1527 37.7234  7.1860
116 30 2 -0.2000 18.0651 35.7254  5.6573
117 30 3  0.1000 17.2406 37.1477  4.1423
118 30 3  0.1000 16.0893 36.3169  5.1961
119 30 2 -0.2000 17.7557 34.6519  4.5924
120 30 3  0.1000 18.2148 35.4568  6.7496
121 30 3  0.1000 19.1119 36.0449  5.4810
122 31 1 -0.3000 10.0120 33.2923  0.6445
123 31 2 -0.2000 10.7297 32.9257  1.9613
124 31 3  0.1000  9.3514 32.5913  0.3053
125 31 3  0.1000 10.7538 33.4759 -0.1361
126 31 3  0.1000  9.5388 34.1839  0.8462
127 31 2 -0.2000 10.0391 31.9012  2.9272
128 31 3  0.1000 11.2417 33.7155  2.4742
129 31 3  0.1000 11.5925 32.2621  1.7228
130 31 2 -0.2000  8.5695 32.3055  3.0445
131 31 3  0.1000 10.5475 31.7531  3.8747
132 31 3  0.1000 10.2514 30.8012  2.5307
133 32 1 -0.3000 20.2317 27.5148 28.0296
134 32 2 -0.2000 18.7494 27.4564 28.3649
135 32 3  0.1000 20.4808 26.3898 28.0571
136 32 3  0.1000 21.0430 28.0244 28.6607
137 32 3  0.1000 20.3423 27.7098 26.8989
138 32 2 -0.2000 17.9608 28.5632 27.5777
139 32 3  0.1000 18.4174 27.4604 29.4552
140 32 3  0.1000 18.4115 26.5065 27.9237
141 32 2 -0.2000 16.7199 29.0164 28.3700
142 32 3  0.1000 17.7108 28.1678 26.5545
143 32 3  0.1000 18.6518 29.3382 27.4025
144 33 1 -0.3000 25.4034 21.3940 34.8737
145 33 2 -0.2000 26.8341 21.7129 34.3444
146 33 3  0.1000 25.2633 21.7831 35.8284
147 33 3  0.1000 25.2672 20.2937 34.8954
148 33 3  0.1000 24.6322 21.8347 34.2543
149 33 2 -0.2000 27.5580 22.6636 35.2798
150 33 3  0.1000 26.8712 22.2476 33.4408
151 33 3  0.1000 27.5795 20.8370 34.2559
152 33 2 -0.2000 29.0585 22.7599 35.1815
153 33 3  0.1000 27.2013 22.5296 36.3329
154 33 3  0.1000 27.1661 23.7266 34.8866
155 34 1 -0.3000 21.7613 13.6370 21.0434
156 34 2 -0.2000 22.9900 12.9931 21.7717
157 34 3  0.1000 21.9991 13.5060 19.9626
158 34 3  0.1000 21.4657 14.6593 21.2562
159 34 3  0.1000 20.8630 13.0321 21.3213
160 34 2 -0.2000 24.3195 13.7493 21.4192
161 34 3  0.1000 23.0335 11.9440 21.9555
162 34 3  0.1000 22.7341 13.2939 22.7859
163 34 2 -0.2000 25.5377 13.0746 22.1729
164 34 3  0.1000 24.3319 14.9157 21.3844
165 34 3  0.1000 24.3956 13.6167 20.2938
166 35 1 -0.3000 16.9508  5.6936 20.7998
167 35 2 -0.2000 15.6833  6.4018 21.3641
168 35 3  0.1000 16.8375  5.2404 19.8355
169 35 3  0.1000 17.3099  4.9653 21.5390
170 35 3  0.1000 17.8139  6.4671 20.8091
171 35 2 -0.2000 14.7109  6.5159 20.2466
172 35 3  0.1000 15.6282  7.3030 21.9783
173 35 3  0.1000 15.2380  5.5922 22.0229
174 35 2 -0.2000 14.3233  5.1316 19.8007
175 35 3  0.1000 14.9942  7.1701 19.3747
176 35 3  0.1000 13.8452  7.0475 20.8012
177 36 1 -0.3000 36.1772 13.3400 10.8912
178 36 2 -0.2000 36.7185 12.8065  9.5474
179 36 3  0.1000 35.4522 12.6887 11.2876
180 36 3  0.1000 35.6376 14.3868 10.8065
181 36 3  0.1000 36.9917 13.2523 11.6050
182 36 2 -0.2000 36.9125 11.3058  9.5329
183 36 3  0.1000 37.5943 13.4031  9.1261
184 36 3  0.1000 35.7790 13.0449  8.9425
185 36 2 -0.2000 36.0984 10.5229  8.4373
186 36 3  0.1000 37.2355 10.9388 10.5260
187 36 3  0.1000 37.8665 11.2469  9.0728
188 37 1 -0.3000 26.0958 15.8985  0.7466
189 37 2 -0.2000 26.5849 14.5931  0.0858
190 37 3  0.1000 26.3872 16.7505  0.1186
191 37 3  0.1000 26.5793 16.0971  1.6960
192 37 3  0.1000 25.0689 15.9808  0.8963
193 37 2 -0.2000 28.0217 14.1403  0.2690
194 37 3  0.1000 26.2390 14.3597 -1.0002
195 37 3  0.1000 25.9504 13.8304  0.7081
196 37 2 -0.2000 28.5350 12.7614 -0.2654
197 37 3  0.1000 28.3937 14.3021  1.2612
198 37 3  0.1000 28.6047 14.8399 -0.3339
199 20 2 -0.2000 19.7788  2.0990 35.3882
200 20 3  0.1000 18.7610  3.9287 35.6625
201 20 3  0.1000 18.8858  3.0650 37.1227
202 21 2 -0.2000 26.6705  6.3938 29.5102
203 21 3  0.1000 24.7978  6.9303 30.6461
204 21 3  0.1000 25.2669  7.8744 29.2369
205 22 2 -0.2000 24.3087 34.0646 30.0213
206 22 3  0.1000 25.6966 34.0959 31.5663
207 22 3  0.1000 24.1903 33.1542 32.0753
208 23 2 -0.2000  6.1897 24.9210 30.4150
209 23 3  0.1000  5.4456 25.9422 32.4140
210 23 3  0.1000  4.2259 24.5565 31.7654
211 24 2 -0.2000 20.0615 16.2375 33.5635
212 24 3  0.1000 22.1950 15.2926 32.9774
213 24 3  0.1000 21.2140 14.3174 34.1047
214 25 2 -0.2000 38.2004  7.1021 29.2017
215 25 3  0.1000 38.1126  8.4401 30.7285
216 25 3  0.1000 36.7960  7.2946 30.8566
217 26 2 -0.2000 12.7002  6.2420 32.3936
218 26 3  0.1000 11.0959  4.7749 32.7385
219 26 3  0.1000 10.9224  5.8371 31.4559
220 27 2 -0.2000 14.9425 19.0409 27.9162
221 27 3  0.1000 15.9631 20.3428 26.5316
222 27 3  0.1000 16.7351 19.9665 28.0073
223 28 2 -0.2000 30.0805 30.5674 36.3419
224 28 3  0.1000 30.5094 32.8061 36.6668
225 28 3  0.1000 29.5648 32.2706 35.3505
226 29 2 -0.2000 12.7889  1.6378 11.0317
227 29 3  0.1000 14.3120  2.9811 11.0640
228 29 3  0.1000 14.6943  1.3588 10.4243
229 30 2 -0.2000 18.8756 34.9936  3.5908
230 30 3  0.1000 16.6768 34.8433  4.2103
231 30 3  0.1000 17.8269 33.6298  4.9520
232 31 2 -0.2000  7.6045 31.4336  3.9364
233 31 3  0.1000  8.1000 32.7770  2.1669
234 31 3  0.1000  8.5935 33.2276  3.7000
235 32 2 -0.2000 15.4239 29.3126 27.4362
236 32 3  0.1000 16.9017 29.9779 29.0130
237 32 3  0.1000 16.4355 28.2087 29.0518
238 33 2 -0.2000 29.7181 23.8975 34.4580
239 33 3  0.1000 29.5527 21.8068 34.7606
240 33 3  0.1000 29.4034 22.7971 36.1733
241 34 2 -0.2000 26.8036 13.8212 21.8223
242 34 3  0.1000 25.7044 11.9690 21.9813
243 34 3  0.1000 25.2376 13.3057 23.1921
244 35 2 -0.2000 13.0698  5.1391 19.0041
245 35 3  0.1000 14.3083  4.3470 20.6464
246 35 3  0.1000 15.1875  4.8921 19.0571
247 36 2 -0.2000 36.0301  9.0780  8.9705
248 36 3  0.1000 36.4883 10.5203  7.3496
249 36 3  0.1000 35.0793 10.9130  8.4387
250 37 2 -0.2000 28.5546 11.5365  0.5764
251 37 3  0.1000 29.4263 12.7505 -0.9716
252 37 3  0.1000 27.7732 12.5462 -1.1048
253 20 2 -0.2000 18.3828  1.7531 35.0026
254 20 3  0.1000 20.2901  1.2986 35.9791
255 20 3  0.1000 20.3276  2.2937 34.4971
256 21 2 -0.2000 27.7005  7.2599 28.9562
257 21 3  0.1000 26.7058  5.2854 29.2202
258 21 3  0.1000 27.0296  6.3019 30.5692
259 22 2 -0.2000 23.6838 35.3867 30.4478
260 22 3  0.1000 23.8466 33.4527 29.3186
261 22 3  0.1000 25.1739 34.3823 29.4039
262 23 2 -0.2000  6.0995 26.2632 29.7259
263 23 3  0.1000  5.8255 24.0519 29.6508
264 23 3  0.1000  7.2883 24.7379 30.5834
265 24 2 -0.2000 19.1906 15.9718 34.6845
266 24 3  0.1000 19.5198 16.3126 32.6604
267 24 3  0.1000 20.6873 17.1538 33.6689
268 25 2 -0.2000 38.5355  8.2470 28.2300
269 25 3  0.1000 37.5599  6.2420 28.7075
270 25 3  0.1000 39.1611  6.5622 29.3154
271 26 2 -0.2000 13.4819  6.7169 31.1895
272 26 3  0.1000 13.2435  5.8566 33.3025
273 26 3  0.1000 12.2005  7.1358 32.6951
274 27 2 -0.2000 13.7335 19.7571 27.5359
275 27 3  0.1000 15.0070 18.9168 28.9892
276 27 3  0.1000 14.8276 18.1197 27.4812
277 28 2 -0.2000 29.7338 29.9339 35.0282
278 28 3  0.1000 29.9004 29.9513 37.3026
279 28 3  0.1000 31.2323 30.6656 36.3962
280 29 2 -0.2000 13.1893  0.5576 12.0742
281 29 3  0.1000 12.1108  1.1878 10.3382
282 29 3  0.1000 12.1975  2.4445 11.4767
283 30 2 -0.2000 19.2455 33.8792  2.4668
284 30 3  0.1000 19.8962 35.3607  4.0476
285 30 3  0.1000 18.5666 35.8840  3.0846
286 31 2 -0.2000  8.0632 31.1933  5.3192
287 31 3  0.1000  7.1912 30.6450  3.3234
288 31 3  0.1000  6.6729 31.9371  4.0373
289 32 2 -0.2000 14.5695 30.0207 28.5800
290 32 3  0.1000 14.9017 28.4197 27.1712
291 32 3  0.1000 15.6499 29.9336 26.5250
292 33 2 -0.2000 30.7735 24.7785 35.1301
293 33 3  0.1000 28.9973 24.5053 33.7944
294 33 3  0.1000 30.3833 23.4700 33.7353
295 34 2 -0.2000 27.1352 13.6792 20.3657
296 34 3  0.1000 27.4760 13.5187 22.6403
297 34 3  0.1000 26.5478 14.8039 22.0245
298 35 2 -0.2000 13.2218  5.5072 17.4870
299 35 3  0.1000 12.3287  5.6624 19.6141
300 35 3  0.1000 12.6639  4.1204 19.0388
301 36 2 -0.2000 36.0049  8.2732  7.7311
302 36 3  0.1000 35.3031  8.8531  9.8457
303 36 3  0.1000 37.0523  8.8190  9.3999
304 37 2 -0.2000 27.9241 10.4213 -0.3325
305 37 3  0.1000 28.0073 11.6041  1.4844
306 37 3  0.1000 29.6190 11.3124  0.8086
307 20 2 -0.2000 18.6054  0.7471 33.9615
308 20 3  0.1000 17.6919  2.6403 34.8702
309 20 3  0.1000 18.0288  1.1763 35.8746
310 21 2 -0.2000 29.1406  6.6328 28.8892
311 21 3  0.1000 27.6309  8.2627 29.4724
312 21 3  0.1000 27.3435  7.5656 27.9129
313 22 2 -0.2000 22.2323 35.2019 30.8136
314 22 3  0.1000 23.9434 36.2371 29.7601
315 22 3  0.1000 24.1925 35.7063 31.3264
316 23 2 -0.2000  4.8309 26.3047 28.8828
317 23 3  0.1000  7.1210 26.5793 29.2681
318 23 3  0.1000  5.9310 27.1636 30.4674
319 24 2 -0.2000 19.9224 16.0669 35.9932
320 24 3  0.1000 18.7995 14.9914 34.5981
321 24 3  0.1000 18.2989 16.6543 34.7052
322 25 2 -0.2000 37.7234  7.7075 27.0578
323 25 3  0.1000 39.5448  8.2713 27.9116
324 25 3  0.1000 38.1632  9.2364 28.6842
325 26 2 -0.2000 13.9636  8.0880 31.3682
326 26 3  0.1000 12.9595  6.5930 30.2407
327 26 3  0.1000 14.3825  6.0391 31.1230
328 27 2 -0.2000 12.5649 19.0903 26.7388
329 27 3  0.1000 13.9653 20.7679 27.1428
330 27 3  0.1000 13.2688 19.9441 28.5549
331 28 2 -0.2000 30.9795 30.0271 34.1856
332 28 3  0.1000 28.9982 30.6124 34.5423
333 28 3  0.1000 29.2972 28.9035 35.1379
334 29 2 -0.2000 13.9763  1.2195 13.1848
335 29 3  0.1000 13.6641 -0.3325 11.7116
336 29 3  0.1000 12.2943  0.2200 12.5504
337 30 2 -0.2000 17.8887 33.3480  2.0088
338 30 3  0.1000 19.8673 33.0594  2.8961
339 30 3  0.1000 19.7956 34.3046  1.5882
340 31 2 -0.2000  7.6484 29.8933  5.9822
341 31 3  0.1000  7.8889 32.0081  5.9397
342 31 3  0.1000  9.1190 31.1561  5.3317
343 32 2 -0.2000 14.1065 31.4302 28.2242
344 32 3  0.1000 14.9436 29.9308 29.6224
345 32 3  0.1000 13.6772 29.3564 28.5950
346 33 2 -0.2000 31.5442 24.0092 36.1736
347 33 3  0.1000 30.5281 25.8763 35.1198
348 33 3  0.1000 31.5688 24.9485 34.3806
349 34 2 -0.2000 28.5952 13.1118 19.9744
350 34 3  0.1000 26.9323 14.5855 19.7655
351 34 3  0.1000 26.3716 12.9511 19.9996
352 35 2 -0.2000 11.8688  5.7682 16.9336
353 35 3  0.1000 13.9263  4.9177 16.9261
354 35 3  0.1000 13.6918  6.4597 17.4150
355 36 2 -0.2000 35.1948  8.8014  6.5630
356 36 3  0.1000 35.8077  7.2119  7.8762
357 36 3  0.1000 37.0910  8.2079  7.4077
358 37 2 -0.2000 28.8403  9.4405 -1.0636
359 37 3  0.1000 27.1050 10.7224 -1.0102
360 37 3  0.1000 27.4509  9.8004  0.3633
361 20 2 -0.2000 18.9048 -0.4670 34.6710
362 20 3  0.1000 19.4246  0.8797 33.2759
363 20 3  0.1000 17.6699  0.7060 33.3710
364 21 2 -0.2000 29.5448  6.2603 27.5255
365 21 3  0.1000 29.4081  5.7007 29.5376
366 21 3  0.1000 29.9045  7.4130 29.2243
367 22 2 -0.2000 21.4591 36.0000 29.7813
368 22 3  0.1000 21.9323 35.7394 31.6956
369 22 3  0.1000 21.9273 34.0715 30.8154
370 23 2 -0.2000  3.6030 26.8816 29.6372
371 23 3  0.1000  4.4963 25.3784 28.3237
372 23 3  0.1000  5.1181 26.9365 28.0892
373 24 2 -0.2000 19.0343 17.0468 36.7663
374 24 3  0.1000 20.9653 16.2509 35.8400
375 24 3  0.1000 19.7873 15.0786 36.5340
376 25 2 -0.2000 37.6783  8.7095 25.8646
377 25 3  0.1000 36.7697  7.2015 27.2109
378 25 3  0.1000 38.3517  6.8691 26.5412
379 26 2 -0.2000 12.9372  9.2192 30.9900
380 26 3  0.1000 14.8459  8.3592 30.8294
381 26 3  0.1000 14.2900  8.1471 32.4840
382 27 2 -0.2000 12.7372 19.4803 25.3212
383 27 3  0.1000 11.6058 18.9203 27.2690
384 27 3  0.1000 12.8850 17.9845 26.7659
385 28 2 -0.2000 31.5540 28.6484 34.3314
386 28 3  0.1000 31.6197 30.9720 34.3359
387 28 3  0.1000 30.6551 30.1284 33.1268
388 29 2 -0.2000 14.2652  0.0542 14.0291
389 29 3  0.1000 13.5707  2.1966 13.5550
390 29 3  0.1000 14.9922  1.4660 12.6920
391 30 2 -0.2000 17.2106 34.4094  1.2110
392 30 3  0.1000 17.2437 32.8803  2.6515
393 30 3  0.1000 18.1337 32.3883  1.4536
394 31 2 -0.2000  7.7156 30.0222  7.5088
395 31 3  0.1000  8.2011 29.0401  5.6153
396 31 3  0.1000  6.6680 29.5987  5.4919
397 32 2 -0.2000 13.4310 32.2006 29.3593
398 32 3  0.1000 13.3633 31.4429 27.3599
399 32 3  0.1000 14.9686 31.9161 27.8142
400 33 2 -0.2000 31.0730 24.3510 37.5298
401 33 3  0.1000 32.6893 24.1952 36.0600
402 33 3  0.1000 31.4049 22.9554 35.9813
403 34 2 -0.2000 28.9303 11.7543 20.3000
404 34 3  0.1000 29.3352 13.8421 20.1165
405 34 3  0.1000 28.4690 13.0631 18.8637
406 35 2 -0.2000 11.4190  4.7541 15.9242
407 35 3  0.1000 11.6960  6.8164 16.5821
408 35 3  0.1000 11.1893  5.7662 17.7459
409 36 2 -0.2000 35.8482  9.2553  5.2274
410 36 3  0.1000 34.2507  9.2944  6.8192
411 36 3  0.1000 34.7368  7.8250  6.2739
412 37 2 -0.2000 28.0407  8.5080 -1.9878
413 37 3  0.1000 29.6439  9.0197 -0.3560
414 37 3  0.1000 29.5567 10.0258 -1.7560
415 20 3  0.1000 18.0726 -0.9963 35.0437
416 20 3  0.1000 19.4011 -0.1167 35.5429
417 20 2 -0.2000 19.9891 -1.3548 33.9983
418 21 3  0.1000 29.0518  6.7416 26.7354
419 21 3  0.1000 29.2935  5.1729 27.3654
420 21 2 -0.2000 31.0166  6.3655 27.6701
421 22 3  0.1000 22.0548 36.2089 28.9133
422 22 3  0.1000 21.3798 36.9778 30.2688
423 22 2 -0.2000 20.1380 35.4420 29.6975
424 23 3  0.1000  3.8305 27.7182 30.2893
425 23 3  0.1000  3.2536 26.1135 30.2892
426 23 2 -0.2000  2.3256 27.4396 28.7299
427 24 3  0.1000 18.1095 16.5845 37.2111
428 24 3  0.1000 18.6072 17.9370 36.1815
429 24 2 -0.2000 19.8579 17.6755 37.9554
430 25 3  0.1000 38.4181  8.4368 25.0905
431 25 3  0.1000 37.8941  9.6554 26.1521
432 25 2 -0.2000 36.2576  8.9126 25.3391
433 26 3  0.1000 12.2376  9.3873 31.8242
434 26 3  0.1000 12.3736  8.6458 30.2398
435 26 2 -0.2000 13.4669 10.4478 30.2875
436 27 3  0.1000 12.5975 18.7272 24.5115
437 27 3  0.1000 13.8721 19.7273 25.1277
438 27 2 -0.2000 11.9020 20.7246 25.0373
439 28 3  0.1000 31.3192 27.8937 33.4935
440 28 3  0.1000 31.0202 28.2261 35.1944
441 28 2 -0.2000 33.0061 28.6731 34.6256
442 29 3  0.1000 15.2692 -0.3867 13.7699
443 29 3  0.1000 13.4228 -0.7251 13.7606
444 29 2 -0.2000 14.1106  0.5253 15.4919
445 30 3  0.1000 17.8218 35.2945  0.9733
446 30 3  0.1000 16.3300 34.8382  1.8257
447 30 2 -0.2000 16.6401 33.7423 -0.0938
448 31 3  0.1000  7.0081 29.2711  7.9144
449 31 3  0.1000  7.4983 31.1323  7.8265
450 31 2 -0.2000  9.1942 29.5851  7.7573
451 32 3  0.1000 14.1076 32.6673 30.1250
452 32 3  0.1000 13.0016 31.3983 29.9413
453 32 2 -0.2000 12.4213 33.2681 28.8422
454 33 3  0.1000 31.3441 23.6547 38.3429
455 33 3  0.1000 29.9781 24.3184 37.4149
456 33 2 -0.2000 31.5260 25.6712 37.8960
457 34 3  0.1000 27.9566 11.1917 20.4172
458 34 3  0.1000 29.5840 11.7191 21.2517
459 34 2 -0.2000 29.7808 11.2456 19.0423
460 35 3  0.1000 11.7085  4.9866 14.8634
461 35 3  0.1000 10.2725  5.0119 15.8504
462 35 2 -0.2000 11.2863  3.3228 16.3215
463 36 3  0.1000 35.4437  8.6040  4.3792
464 36 3  0.1000 36.9841  8.9866  5.3408
465 36 2 -0.2000 35.7869 10.8003  4.7904
466 37 3  0.1000 28.0472  7.4549 -1.7757
467 37 3  0.1000 28.5526  8.4761 -2.8984
468 37 2 -0.2000 26.5812  8.9286 -2.4357
469 20 2 -0.2000 21.2252 -1.5776 34.8680
470 20 3  0.1000 20.0487 -1.2337 32.8934
471 20 3  0.1000 19.5959 -2.4370 33.9540
472 21 2 -0.2000 31.8098  5.9928 26.3602
473 21 3  0.1000 31.3487  5.7906 28.5883
474 21 3  0.1000 31.3174  7.4249 27.7649
475 22 2 -0.2000 19.2803 36.2400 28.5794
476 22 3  0.1000 19.7717 35.3154 30.7498
477 22 3  0.1000 20.2294 34.4018 29.3556
478 23 2 -0.2000  1.1775 27.8710 29.6554
479 23 3  0.1000  1.9559 26.8379 28.0223
480 23 3  0.1000  2.7197 28.3056 28.2774
481 24 2 -0.2000 19.7220 19.1887 37.8680
482 24 3  0.1000 20.7902 17.2138 38.2333
483 24 3  0.1000 19.2988 17.3504 38.8523
484 25 2 -0.2000 36.0922  9.9458 24.1761
485 25 3  0.1000 35.4730  9.0459 26.1279
486 25 3  0.1000 35.9946  7.9481 24.8500
487 26 2 -0.2000 14.5658 11.2291 31.0219
488 26 3  0.1000 12.7285 11.1920 30.0562
489 26 3  0.1000 13.8873 10.1504 29.3339
490 27 2 -0.2000 12.6877 21.9319 24.6027
491 27 3  0.1000 11.1273 20.8686 25.7659
492 27 3  0.1000 11.2564 20.6252 24.1430
493 28 2 -0.2000 33.8488 28.0079 33.5303
494 28 3  0.1000 33.3829 28.4321 35.6870
495 28 3  0.1000 33.2176 29.7667 34.5390
496 29 2 -0.2000 13.6354 -0.6096 16.3778
497 29 3  0.1000 13.5681  1.4936 15.4986
498 29 3  0.1000 15.0675  0.8580 15.9613
499 30 2 -0.2000 15.2897 34.1082 -0.8364
500 30 3  0.1000 16.8496 32.7316 -0.0662
501 30 3  0.1000 17.3680 34.0785 -0.8192
502 31 2 -0.2000  9.5555 28.0041  7.8455
503 31 3  0.1000  9.7107 30.2721  8.5695
504 31 3  0.1000  9.6125 29.8855  6.8503
505 32 2 -0.2000 11.0450 32.7892 28.3704
506 32 3  0.1000 12.9517 34.0956 28.2585
507 32 3  0.1000 12.2299 33.8762 29.6550
508 33 2 -0.2000 32.9689 25.6355 38.3447
509 33 3  0.1000 30.9543 26.1217 38.7629
510 33 3  0.1000 31.3437 26.2630 36.9687
511 34 2 -0.2000 30.3053  9.7757 19.2585
512 34 3  0.1000 30.5504 11.8839 18.6527
513 34 3  0.1000 29.0104 11.3131 18.0781
514 35 2 -0.2000 10.6186  2.4600 15.2421
515 35 3  0.1000 10.7105  3.2190 17.2081
516 35 3  0.1000 12.2457  2.9189 16.5451
517 36 2 -0.2000 37.1645 11.3091  4.2161
518 36 3  0.1000 35.2589 11.5299  5.5247
519 36 3  0.1000 35.1303 10.8116  3.9838
520 37 2 -0.2000 26.6203 10.2982 -3.1772
521 37 3  0.1000 25.7129  8.9688 -1.6782
522 37 3  0.1000 26.3078  8.1026 -3.1063
523 20 2 -0.2000 21.9769 -0.3614 34.5908
524 20 3  0.1000 21.8303 -2.4430 34.6343
525 20 3  0.1000 20.9906 -1.5509 35.9000
526 21 2 -0.2000 33.3624  6.0288 26.6370
527 21 3  0.1000 31.4581  6.4372 25.3861
528 21 3  0.1000 31.4789  4.9189 26.2457
529 22 2 -0.2000 17.7625 36.6761 28.8466
530 22 3  0.1000 19.3761 35.6020 27.6351
531 22 3  0.1000 19.8681 37.1684 28.3651
532 23 2 -0.2000  0.6603 29.3298 29.3437
533 23 3  0.1000  1.3332 27.5956 30.6917
534 23 3  0.1000  0.3451 27.2085 29.3752
535 24 2 -0.2000 18.4356 19.9163 38.2820
536 24 3  0.1000 20.1250 19.5741 36.8947
537 24 3  0.1000 20.5423 19.4374 38.5688
538 25 2 -0.2000 34.5278  9.8043 23.8275
539 25 3  0.1000 36.7785  9.6984 23.2903
540 25 3  0.1000 36.2821 10.9824 24.5110
541 26 2 -0.2000 15.3428 12.2467 30.1657
542 26 3  0.1000 15.1623 10.5967 31.6180
543 26 3  0.1000 13.9934 11.8824 31.7767
544 27 2 -0.2000 11.8776 23.1168 24.8940
545 27 3  0.1000 13.0182 21.7568 23.5974
546 27 3  0.1000 13.7050 21.9982 25.2959
547 28 2 -0.2000 33.7981 28.6730 32.1359
548 28 3  0.1000 33.8415 26.9259 33.4797
549 28 3  0.1000 34.8737 28.1826 33.9218
550 29 2 -0.2000 12.1725 -0.7490 16.7183
551 29 3  0.1000 14.2582 -0.9277 17.2396
552 29 3  0.1000 13.7846 -1.5091 15.6578
553 30 2 -0.2000 14.1286 33.9630  0.1249
554 30 3  0.1000 15.1528 33.5533 -1.8323
555 30 3  0.1000 15.3858 35.2058 -1.1117
556 31 2 -0.2000 10.7364 27.9489  8.8158
557 31 3  0.1000  9.7623 27.5103  6.9007
558 31 3  0.1000  8.6354 27.4642  8.3142
559 32 2 -0.2000 10.4990 33.6914 27.3135
560 32 3  0.1000 10.2515 32.5689 29.1122
561 32 3  0.1000 11.2173 31.8434 27.6940
562 33 2 -0.2000 33.1064 26.6428 39.4490
563 33 3  0.1000 33.7145 25.6836 37.4914
564 33 3  0.1000 33.0979 24.6559 38.7192
565 34 2 -0.2000 29.1773  8.8065 19.4087
566 34 3  0.1000 31.1980  9.8201 19.8887
567 34 3  0.1000 30.6680  9.4030 18.2471
568 35 2 -0.2000  9.7797  1.2101 15.7045
569 35 3  0.1000 11.2714  2.2573 14.2902
570 35 3  0.1000  9.8968  3.2340 14.8269
571 36 2 -0.2000 37.4068 12.8280  4.5749
572 36 3  0.1000 37.2786 10.9871  3.1297
573 36 3  0.1000 37.9755 10.6922  4.6989
574 37 2 -0.2000 25.4484 11.1386 -2.8732
575 37 3  0.1000 26.8488 10.0679 -4.3247
576 37 3  0.1000 27.5351 10.8167 -2.8020
577 20 2 -0.2000 23.1999 -0.1106 35.5211
578 20 3  0.1000 21.2810  0.5128 34.6435
579 20 3  0.1000 22.3108 -0.4337 33.5439
580 21 2 -0.2000 33.8205  5.5073 25.2313
581 21 3  0.1000 33.8006  5.5435 27.4707
582 21 3  0.1000 33.6356  7.0952 26.6507
583 22 2 -0.2000 17.6212 38.2082 28.7870
584 22 3  0.1000 17.5956 36.2879 29.8452
585 22 3  0.1000 17.0685 36.3087 28.1194
586 23 2 -0.2000  0.6204 30.1456 30.5801
587 23 3  0.1000 -0.3140 29.0614 28.9299
588 23 3  0.1000  1.2554 29.8811 28.6481
589 24 2 -0.2000 18.1767 20.9667 37.1846
590 24 3  0.1000 18.3909 20.1841 39.3465
591 24 3  0.1000 17.6046 19.2448 38.3151
592 25 2 -0.2000 33.7131 10.5987 24.8288
593 25 3  0.1000 34.1905  8.7707 23.5711
594 25 3  0.1000 34.3931 10.2944 22.8274
595 26 2 -0.2000 14.6430 13.5736 29.6486
596 26 3  0.1000 15.9002 11.9155 29.3825
597 26 3  0.1000 16.1910 12.5866 30.8777
598 27 2 -0.2000 10.6749 23.3514 23.8553
599 27 3  0.1000 12.5072 24.0041 25.0296
600 27 3  0.1000 11.3475 23.0052 25.8760
601 28 2 -0.2000 34.6298 27.9282 31.1303
602 28 3  0.1000 33.7940 29.7703 32.1220
603 28 3  0.1000 32.7270 28.3827 31.8393
604 29 2 -0.2000 11.1694 -1.4613 15.7021
605 29 3  0.1000 11.7380  0.3219 16.8297
606 29 3  0.1000 12.0725 -1.1794 17.7519
607 30 2 -0.2000 13.3452 35.3010  0.2421
608 30 3  0.1000 14.2179 33.4012  1.0925
609 30 3  0.1000 13.4040 33.2478 -0.3943
610 31 2 -0.2000 11.9859 27.0491  8.4896
611 31 3  0.1000 10.2156 27.5999  9.8062
612 31 3  0.1000 11.0105 29.0044  9.0526
613 32 2 -0.2000  8.9526 33.8028 27.5894
614 32 3  0.1000 10.6402 33.4071 26.2963
615 32 3  0.1000 11.0452 34.6496 27.5406
616 33 2 -0.2000 34.3908 27.3204 39.1894
617 33 3  0.1000 32.9382 26.2026 40.4507
618 33 3  0.1000 32.2723 27.3977 39.3392
619 34 2 -0.2000 28.8275  8.7737 20.8759
620 34 3  0.1000 29.3373  7.7826 19.0543
621 34 3  0.1000 28.2393  9.1860 18.8259
622 35 2 -0.2000  8.2940  1.6576 15.6342
623 35 3  0.1000 10.1076  0.7564 16.5640
624 35 3  0.1000 10.0113  0.5370 14.8813
625 36 2 -0.2000 37.4124 13.6478  3.2976
626 36 3  0.1000 38.2432 13.0145  5.2123
627 36 3  0.1000 36.5223 13.2396  5.1502
628 37 2 -0.2000 24.3439 11.4776 -3.9835
629 37 3  0.1000 25.7620 12.1012 -2.3988
630 37 3  0.1000 24.8562 10.6377 -2.0490
631 20 2 -0.2000 24.3867 -0.7521 34.9021
632 20 3  0.1000 23.0330 -0.3078 36.5259
633 20 3  0.1000 23.3139  0.9957 35.3194
634 21 2 -0.2000 34.2293  4.0220 25.0227
635 21 3  0.1000 34.6308  6.1045 24.8348
636 21 3  0.1000 32.9954  5.7571 24.5600
637 22 2 -0.2000 16.2508 38.9017 28.4264
638 22 3  0.1000 18.4487 38.7040 28.3838
639 22 3  0.1000 17.7149 38.5233 29.8935
640 23 2 -0.2000  1.6567 31.2377 30.7878
641 23 3  0.1000  0.3428 29.4140 31.4995
642 23 3  0.1000 -0.3092 30.6601 30.4893
643 24 2 -0.2000 17.6089 20.6675 35.8437
644 24 3  0.1000 18.9854 21.5768 37.0494
645 24 3  0.1000 17.4542 21.7061 37.6260
646 25 2 -0.2000 32.3706 11.0416 24.2956
647 25 3  0.1000 34.3736 11.3243 25.2518
648 25 3  0.1000 33.4312  9.9700 25.7491
649 26 2 -0.2000 14.1525 13.3578 28.1867
650 26 3  0.1000 15.3454 14.4247 29.8504
651 26 3  0.1000 13.7373 13.6539 30.2621
652 27 2 -0.2000  9.3056 23.4944 24.2810
653 27 3  0.1000 10.6535 22.4046 23.1541
654 27 3  0.1000 11.0079 24.2424 23.2362
655 28 2 -0.2000 36.1201 28.2390 31.2835
656 28 3  0.1000 34.2017 28.2151 30.1758
657 28 3  0.1000 34.3536 26.8466 31.0779
658 29 2 -0.2000 10.9051 -2.9505 16.1163
659 29 3  0.1000 11.5401 -1.3304 14.6307
660 29 3  0.1000 10.1916 -1.0830 15.7671
661 30 2 -0.2000 13.5470 35.8999  1.6160
662 30 3  0.1000 12.2609 35.1996 -0.0276
663 30 3  0.1000 13.7546 36.0472 -0.5258
664 31 2 -0.2000 12.8656 27.6264  7.3749
665 31 3  0.1000 11.6556 26.0473  8.2089
666 31 3  0.1000 12.6316 26.9987  9.4188
667 32 2 -0.2000  8.7388 34.5256 28.8988
668 32 3  0.1000  8.2984 32.9220 27.4896
669 32 3  0.1000  8.5737 34.4528 26.7826
670 33 2 -0.2000 35.2232 26.8261 40.3615
671 33 3  0.1000 34.3393 28.4580 39.1102
672 33 3  0.1000 34.8238 26.9560 38.2921
673 34 2 -0.2000 28.6210  7.3254 21.4152
674 34 3  0.1000 27.9859  9.3012 21.0939
675 34 3  0.1000 29.5751  9.1789 21.5733
676 35 2 -0.2000  7.7233  2.3259 16.8437
677 35 3  0.1000  7.6497  0.9318 15.1629
678 35 3  0.1000  8.2994  2.4345 14.8914
679 36 2 -0.2000 36.6577 15.0024  3.5254
680 36 3  0.1000 37.2299 13.0398  2.4092
681 36 3  0.1000 38.4564 13.9707  3.1319
682 37 2 -0.2000 24.2940 10.5251 -5.2985
683 37 3  0.1000 24.3682 12.5885 -4.2635
684 37 3  0.1000 23.3948 11.4246 -3.4202
685 20 2 -0.2000 25.3011 -1.0404 36.1319
686 20 3  0.1000 25.0759 -0.0969 34.3923
687 20 3  0.1000 24.1004 -1.6811 34.2939
688 21 2 -0.2000 35.7283  3.8602 25.3547
689 21 3  0.1000 33.7854  3.5428 24.1104
690 21 3  0.1000 33.6927  3.4868 25.8762
691 22 2 -0.2000 16.0998 39.9761 27.3678
692 22 3  0.1000 15.6544 39.0459 29.2931
693 22 3  0.1000 15.7352 37.9752 28.0251
694 23 2 -0.2000  1.2885 32.0671 32.0808
695 23 3  0.1000  1.3717 31.9397 29.9849
696 23 3  0.1000  2.7468 30.8157 30.7339
697 24 2 -0.2000 16.1556 20.8711 35.5179
698 24 3  0.1000 17.9942 19.7365 35.4134
699 24 3  0.1000 18.1526 21.5145 35.2779
700 25 2 -0.2000 31.7082 11.6844 25.5054
701 25 3  0.1000 31.6449 10.2346 23.8919
702 25 3  0.1000 32.4358 11.8080 23.4827
703 26 2 -0.2000 14.6202 14.5533 27.5132
704 26 3  0.1000 13.0641 13.2109 28.1046
705 26 3  0.1000 14.6810 12.5097 27.6629
706 27 2 -0.2000  9.0312 24.9937 24.1834
707 27 3  0.1000  9.1969 22.9757 25.3463
708 27 3  0.1000  8.5680 22.9530 23.6935
709 28 2 -0.2000 36.8012 27.4884 30.1726
710 28 3  0.1000 36.4570 28.0789 32.3197
711 28 3  0.1000 36.4208 29.2571 31.0126
712 29 2 -0.2000  9.9813 -3.3373 14.9201
713 29 3  0.1000 10.5445 -3.0861 17.2106