LAMMPS DATA FILE

4032 atoms 
 4014 bonds 
 7992 angles 
 11826 dihedrals 
 0 impropers 

 3 atom types 
 4 bond types 
 7 angle types 
 8 dihedral types 
 0 improper types 

0.00000  40.0000  xlo xhi
0.00000  40.0000  ylo yhi
0.00000  40.0000  zlo zhi

Masses

1  12.01115 
2  12.01115 
3  1.00797 

Pair Coeffs

1  0.038999995200   3.875409
2  0.038999995200   3.875409
3  0.038000001100   2.449971

Bond Coeffs

1 322.715800 1.526000 
2 340.617500 1.105000 
3 322.715800 1.526000 
4 340.617500 1.105000 

Angle Coeffs

1 46.600000 110.500000 
2 46.600000 110.500000 
3 44.400000 110.000000 
4 39.500000 106.400000 
5 44.400000 110.000000 
6 44.400000 110.000000 
7 39.500000 106.400000 

Dihedral Coeffs

1 0.158100 1 3 
2 0.158100 1 3 
3 0.158100 1 3 
4 0.158100 1 3 
5 0.158100 1 3 
6 0.158100 1 3 
7 0.158100 1 3 
8 0.158100 1 3 

Atoms

1 20 1 -0.3000 24.9125 22.2473 20.3560
2 20 2 -0.2000 24.6053 21.5758 19.0383
3 20 3  0.1000 25.8570 21.9998 20.6815
4 20 3  0.1000 24.1081 22.2702 21.1993
5 20 3  0.1000 24.9089 23.3943 20.0812
6 20 2 -0.2000 24.5778 20.0729 19.2032
7 20 3  0.1000 25.1752 21.8896 18.0788
8 20 3  0.1000 23.5162 21.9055 18.8610
9 20 2 -0.2000 23.8928 19.3950 18.0154
10 20 3  0.1000 24.3909 19.7170 20.2322
11 20 3  0.1000 25.6597 19.7255 19.1096
12 21 1 -0.3000 36.6590 10.0438 31.8624
13 21 2 -0.2000 38.0824 10.1403 32.4107
14 21 3  0.1000 36.7397  9.2838 31.1038
15 21 3  0.1000 36.3600 10.9694 31.2537
16 21 3  0.1000 35.8489  9.7692 32.5516
17 21 2 -0.2000 38.1547 11.3700 33.2972
18 21 3  0.1000 38.8075 10.2119 31.5813
19 21 3  0.1000 38.3210  9.3343 33.0904
20 21 2 -0.2000 38.9252 10.8302 34.5035
21 21 3  0.1000 37.1358 11.8137 33.5163
22 21 3  0.1000 38.6790 12.2569 32.7132
23 22 1 -0.3000  0.8696 34.3672 23.2341
24 22 2 -0.2000  0.2873 35.1947 24.3239
25 22 3  0.1000  0.4529 33.4425 23.2126
26 22 3  0.1000  1.9798 34.3943 22.9581
27 22 3  0.1000  0.3829 34.7545 22.3317
28 22 2 -0.2000  0.8960 36.5360 24.2311
29 22 3  0.1000  0.2906 34.8070 25.4208
30 22 3  0.1000 -0.7342 35.4010 23.9669
31 22 2 -0.2000  0.8717 37.3008 25.5816
32 22 3  0.1000  0.6712 37.0061 23.2233
33 22 3  0.1000  1.9271 36.2542 24.1835
34 23 1 -0.3000 31.8056 17.3272 10.8543
35 23 2 -0.2000 32.4483 16.4880  9.6727
36 23 3  0.1000 30.7785 17.5862 10.5549
37 23 3  0.1000 32.3341 18.2529 11.2214
38 23 3  0.1000 31.7133 16.5778 11.7064
39 23 2 -0.2000 33.6976 17.3179  9.4073
40 23 3  0.1000 31.8390 16.3203  8.7892
41 23 3  0.1000 32.6936 15.4415 10.1161
42 23 2 -0.2000 34.9194 16.7017  8.6158
43 23 3  0.1000 33.9647 17.8376 10.3311
44 23 3  0.1000 33.4263 18.1296  8.7281
45 24 1 -0.3000 26.1736  3.8286  3.9530
46 24 2 -0.2000 26.9920  2.8237  3.1220
47 24 3  0.1000 26.7150  4.1245  4.8357
48 24 3  0.1000 25.0487  3.6878  4.0755
49 24 3  0.1000 26.1870  4.8267  3.3721
50 24 2 -0.2000 26.2735  2.4209  1.9395
51 24 3  0.1000 27.3670  1.9441  3.8225
52 24 3  0.1000 27.8988  3.3507  2.6658
53 24 2 -0.2000 27.3168  1.6337  1.1438
54 24 3  0.1000 25.9415  3.3657  1.3740
55 24 3  0.1000 25.3475  1.8934  2.1774
56 25 1 -0.3000 32.8428 39.5028 17.0889
57 25 2 -0.2000 33.0773 40.1415 18.4404
58 25 3  0.1000 33.5075 40.0087 16.4562
59 25 3  0.1000 31.8787 39.4062 16.6998
60 25 3  0.1000 33.3532 38.5385 17.0093
61 25 2 -0.2000 32.3317 39.5546 19.5718
62 25 3  0.1000 33.1293 41.2179 18.5068
63 25 3  0.1000 34.1762 39.9499 18.6934
64 25 2 -0.2000 32.2029 40.2831 20.8926
65 25 3  0.1000 32.4187 38.4757 19.6346
66 25 3  0.1000 31.3261 39.5780 19.1641
67 26 1 -0.3000  0.6170  5.4168 13.4982
68 26 2 -0.2000  0.0756  5.6385 14.9385
69 26 3  0.1000  1.7325  5.5661 13.5483
70 26 3  0.1000  0.1467  6.1231 12.8013
71 26 3  0.1000  0.5108  4.3977 13.0163
72 26 2 -0.2000  0.0587  7.0825 15.4395
73 26 3  0.1000  0.6009  5.0999 15.7107
74 26 3  0.1000 -1.0110  5.2645 14.9873
75 26 2 -0.2000  1.1300  7.6771 16.2863
76 26 3  0.1000 -1.0002  7.2120 15.8023
77 26 3  0.1000  0.0726  7.6758 14.5262
78 27 1 -0.3000 36.2472 20.1840  3.9961
79 27 2 -0.2000 35.0790 19.8777  3.1994
80 27 3  0.1000 36.3553 21.2622  4.1691
81 27 3  0.1000 37.1722 19.7414  3.5222
82 27 3  0.1000 36.1321 19.7868  5.0533
83 27 2 -0.2000 35.0816 20.4836  1.8055
84 27 3  0.1000 34.1854 20.1424  3.7972
85 27 3  0.1000 35.0404 18.8095  3.0967
86 27 2 -0.2000 36.1788 19.7012  1.0587
87 27 3  0.1000 35.1108 21.5812  1.8349
88 27 3  0.1000 34.1050 20.2463  1.2736
89 28 1 -0.3000 13.0590  3.8177 21.6561
90 28 2 -0.2000 11.5697  3.4333 21.6607
91 28 3  0.1000 13.7353  2.9931 22.0887
92 28 3  0.1000 13.3675  4.6731 22.1740
93 28 3  0.1000 13.3967  4.1612 20.5567
94 28 2 -0.2000 10.6313  4.5619 21.2373
95 28 3  0.1000 11.2221  2.9085 22.6119
96 28 3  0.1000 11.4661  2.5604 20.8449
97 28 2 -0.2000 10.0510  5.1339 22.5442
98 28 3  0.1000 10.0196  4.1777 20.4475
99 28 3  0.1000 11.3282  5.3734 20.9323
100 29 1 -0.3000  6.2966 30.5955  6.4234
101 29 2 -0.2000  4.8944 30.0943  6.5738
102 29 3  0.1000  6.5083 31.1921  5.5793
103 29 3  0.1000  6.9179 29.6501  6.1334
104 29 3  0.1000  6.7498 31.0266  7.3897
105 29 2 -0.2000  4.4217 29.2000  5.4212
106 29 3  0.1000  4.1948 30.9387  6.7252
107 29 3  0.1000  4.6165 29.5331  7.4790
108 29 2 -0.2000  3.5393 29.8446  4.3029
109 29 3  0.1000  4.0563 28.2337  5.7248
110 29 3  0.1000  5.3991 28.8846  4.8556
111 30 1 -0.3000 27.9371 17.6737  3.6472
112 30 2 -0.2000 27.2147 16.2243  3.6509
113 30 3  0.1000 28.8774 17.7788  3.0232
114 30 3  0.1000 28.2764 18.0882  4.6069
115 30 3  0.1000 27.3014 18.3864  3.1403
116 30 2 -0.2000 26.5381 15.9695  2.2720
117 30 3  0.1000 26.5383 16.0192  4.5541
118 30 3  0.1000 28.0538 15.5078  3.6986
119 30 2 -0.2000 26.2829 14.4483  2.2567
120 30 3  0.1000 27.0171 16.4115  1.3515
121 30 3  0.1000 25.5079 16.3492  2.2722
122 31 1 -0.3000 39.2663 26.3039 31.9092
123 31 2 -0.2000 40.7250 26.0998 32.3988
124 31 3  0.1000 38.6570 26.8424 32.6682
125 31 3  0.1000 38.7053 25.4280 31.5606
126 31 3  0.1000 39.2188 26.9737 31.0468
127 31 2 -0.2000 40.7786 26.8505 33.7438
128 31 3  0.1000 41.4373 26.5793 31.7323
129 31 3  0.1000 40.9586 25.0613 32.6292
130 31 2 -0.2000 42.2375 26.8710 34.2202
131 31 3  0.1000 40.0720 26.5167 34.5722
132 31 3  0.1000 40.5042 27.9047 33.4888
133 32 1 -0.3000 21.0328 37.3583 36.4676
134 32 2 -0.2000 21.0949 35.9507 36.9022
135 32 3  0.1000 20.0252 37.7012 36.8735
136 32 3  0.1000 21.2822 37.6039 35.4054
137 32 3  0.1000 21.8212 37.8851 37.0494
138 32 2 -0.2000 22.5093 35.6691 36.9855
139 32 3  0.1000 20.4820 35.2864 36.2213
140 32 3  0.1000 20.6382 35.7652 37.8761
141 32 2 -0.2000 23.1827 35.5943 38.3177
142 32 3  0.1000 23.0199 36.4326 36.3112
143 32 3  0.1000 22.6704 34.6826 36.4522
144 33 1 -0.3000  0.8221 25.8124 39.6463
145 33 2 -0.2000  1.2113 27.0326 40.4601
146 33 3  0.1000  1.1997 24.8476 40.0968
147 33 3  0.1000  0.8750 25.9445 38.5683
148 33 3  0.1000 -0.3264 25.6726 39.8172
149 33 2 -0.2000  0.4562 28.1908 39.8325
150 33 3  0.1000  2.3334 27.0540 40.3999
151 33 3  0.1000  0.8829 26.9394 41.4947
152 33 2 -0.2000  1.5025 29.1255 39.2359
153 33 3  0.1000 -0.2421 28.4685 40.6238
154 33 3  0.1000 -0.2054 27.8112 38.9837
155 34 1 -0.3000 15.2508 10.6800 38.6933
156 34 2 -0.2000 14.2133 10.2216 39.8473
157 34 3  0.1000 16.1276 11.0742 39.2254
158 34 3  0.1000 14.7223 11.4241 38.0414
159 34 3  0.1000 15.5582  9.8178 38.0953
160 34 2 -0.2000 12.7595 10.0705 39.2996
161 34 3  0.1000 14.3172 10.8073 40.7487
162 34 3  0.1000 14.3952  9.1511 40.1995
163 34 2 -0.2000 11.6246 10.5796 40.2451
164 34 3  0.1000 12.6775  9.1100 38.8984
165 34 3  0.1000 12.6905 10.7367 38.4447
166 35 1 -0.3000 38.1201 39.9170  4.7518
167 35 2 -0.2000 37.0093 40.4663  5.6020
168 35 3  0.1000 38.2153 40.4361  3.7966
169 35 3  0.1000 38.2180 38.7871  4.7853
170 35 3  0.1000 38.9919 40.2689  5.2689
171 35 2 -0.2000 36.6172 41.9685  5.2974
172 35 3  0.1000 37.1227 40.4666  6.7512
173 35 3  0.1000 36.1747 39.7338  5.4249
174 35 2 -0.2000 35.4614 42.6882  6.0708
175 35 3  0.1000 36.6074 42.1348  4.2067
176 35 3  0.1000 37.5203 42.6548  5.6323
177 36 1 -0.3000 32.9631 28.1516  0.5362
178 36 2 -0.2000 31.7521 27.2913  0.1137
179 36 3  0.1000 34.0307 27.6912  0.4157
180 36 3  0.1000 32.9332 28.6222  1.6455
181 36 3  0.1000 33.0288 29.0340 -0.1230
182 36 2 -0.2000 30.8763 26.6060  1.2622
183 36 3  0.1000 31.8809 26.5513 -0.7090
184 36 3  0.1000 31.1252 28.0361 -0.4757
185 36 2 -0.2000 29.3941 26.5633  0.9999
186 36 3  0.1000 31.1389 26.9003  2.2405
187 36 3  0.1000 31.0745 25.5266  1.2634
188 37 1 -0.3000 31.8580 14.8268 23.6321
189 37 2 -0.2000 32.8446 14.4029 24.6366
190 37 3  0.1000 31.4186 15.8236 23.9136
191 37 3  0.1000 31.1677 14.0613 23.3963
192 37 3  0.1000 32.3915 14.9497 22.7007
193 37 2 -0.2000 33.7437 15.4781 25.2570
194 37 3  0.1000 33.4133 13.4526 24.3130
195 37 3  0.1000 32.2256 13.9731 25.4826
196 37 2 -0.2000 34.0729 15.1248 26.6578
197 37 3  0.1000 33.3186 16.4483 25.2941
198 37 3  0.1000 34.6454 15.3936 24.5814
199 20 2 -0.2000 24.2899 17.9288 17.7851
200 20 3  0.1000 24.0560 19.9411 17.0383
201 20 3  0.1000 22.7881 19.4465 18.3005
202 21 2 -0.2000 38.4333 11.7865 35.5921
203 21 3  0.1000 40.0227 10.9844 34.3464
204 21 3  0.1000 38.6923  9.8609 34.8950
205 22 2 -0.2000  0.3368 38.7046 25.3173
206 22 3  0.1000  1.6806 37.1539 26.3831
207 22 3  0.1000  0.0003 36.8940 26.1309
208 23 2 -0.2000 35.2396 15.1443  8.5383
209 23 3  0.1000 35.8211 17.5132  8.7580
210 23 3  0.1000 34.5748 16.9264  7.5675
211 24 2 -0.2000 28.1211  2.2680 -0.0227
212 24 3  0.1000 26.9017  0.7150  0.8187
213 24 3  0.1000 28.1722  1.3326  1.9111
214 25 2 -0.2000 33.0439 41.5030 21.0278
215 25 3  0.1000 32.2480 39.6389 21.7716
216 25 3  0.1000 31.2017 40.7804 20.9291
217 26 2 -0.2000  0.6174  8.9777 16.9908
218 26 3  0.1000  2.1441  7.5703 15.8182
219 26 3  0.1000  1.3095  6.9401 17.1363
220 27 2 -0.2000 35.5180 18.7036  0.0360
221 27 3  0.1000 36.8793 19.1854  1.8018
222 27 3  0.1000 36.7242 20.5128  0.4370
223 28 2 -0.2000  8.7408  4.3217 22.7952
224 28 3  0.1000 10.0105  6.2668 22.4146
225 28 3  0.1000 10.6898  4.9924 23.4209
226 29 2 -0.2000  4.3990 30.2471  3.0619
227 29 3  0.1000  3.0100 30.7922  4.5363
228 29 3  0.1000  2.7476 29.1440  4.0225
229 30 2 -0.2000 26.9302 13.7960  1.0517
230 30 3  0.1000 25.2322 14.2099  2.1903
231 30 3  0.1000 26.4534 13.9853  3.2762
232 31 2 -0.2000 42.5428 25.6918 35.1034
233 31 3  0.1000 42.6519 27.7641 34.7254
234 31 3  0.1000 42.8120 26.7581 33.2984
235 32 2 -0.2000 24.7028 35.7029 38.4649
236 32 3  0.1000 22.9291 34.6175 38.8441
237 32 3  0.1000 22.6697 36.3856 38.9656
238 33 2 -0.2000  1.4133 30.6418 39.6728
239 33 3  0.1000  1.7444 29.0819 38.2185
240 33 3  0.1000  2.4369 28.7222 39.5942
241 34 2 -0.2000 10.9123  9.4306 41.0154
242 34 3  0.1000 10.8721 11.1887 39.6423
243 34 3  0.1000 12.0670 11.2515 40.9725
244 35 2 -0.2000 34.3222 41.7804  6.5496
245 35 3  0.1000 34.9460 43.5638  5.5412
246 35 3  0.1000 35.8849 42.9699  7.0172
247 36 2 -0.2000 28.8462 25.2330  1.3915
248 36 3  0.1000 29.0244 26.9071  0.0323
249 36 3  0.1000 28.8949 27.3938  1.6267
250 37 2 -0.2000 34.8617 16.2118 27.3446
251 37 3  0.1000 34.2663 14.0912 26.7820
252 37 3  0.1000 33.0976 15.1791 27.1135
253 20 2 -0.2000 24.0121 17.3721 16.3460
254 20 3  0.1000 23.8800 17.2733 18.4970
255 20 3  0.1000 25.3798 17.9638 18.0347
256 21 2 -0.2000 39.5812 12.0388 36.6009
257 21 3  0.1000 37.3959 11.5075 36.0096
258 21 3  0.1000 38.2110 12.7962 34.9819
259 22 2 -0.2000  0.0934 39.2943 26.7144
260 22 3  0.1000 -0.5623 38.6614 24.6449
261 22 3  0.1000  1.1651 39.3309 24.7772
262 23 2 -0.2000 36.7087 14.8864  8.8419
263 23 3  0.1000 34.7730 14.6048  7.5785
264 23 3  0.1000 34.6414 14.6406  9.3475
265 24 2 -0.2000 28.0911  1.3707 -1.2534
266 24 3  0.1000 29.1194  2.4919  0.3015
267 24 3  0.1000 27.5531  3.2085 -0.2242
268 25 2 -0.2000 33.6571 41.4137 22.3941
269 25 3  0.1000 32.5727 42.2802 20.5065
270 25 3  0.1000 33.9768 41.1812 20.3447
271 26 2 -0.2000  1.6447 10.0495 16.8192
272 26 3  0.1000  0.3176  8.9779 18.0817
273 26 3  0.1000 -0.3095  9.4089 16.2681
274 27 2 -0.2000 36.4251 17.4737  0.0366
275 27 3  0.1000 35.2311 19.2029 -0.9833
276 27 3  0.1000 34.5526 18.2978  0.3988
277 28 2 -0.2000  8.5516  3.9972 24.3272
278 28 3  0.1000  8.5201  3.5315 22.1582
279 28 3  0.1000  7.9285  5.1332 22.6599
280 29 2 -0.2000  3.6531 30.3740  1.7062
281 29 3  0.1000  5.4226 29.8231  2.8944
282 29 3  0.1000  4.7193 31.2859  3.3760
283 30 2 -0.2000 27.5051 12.4429  1.4125
284 30 3  0.1000 27.5559 14.6199  0.5716
285 30 3  0.1000 26.1715 13.7313  0.2571
286 31 2 -0.2000 44.0840 25.5254 35.2598
287 31 3  0.1000 42.0646 24.6364 34.7150
288 31 3  0.1000 42.2192 25.8453 36.1828
289 32 2 -0.2000 25.2306 35.3208 39.7824
290 32 3  0.1000 25.2557 36.4796 38.0309
291 32 3  0.1000 25.0858 34.8597 37.8162
292 33 2 -0.2000  0.2358 31.3820 38.9895
293 33 3  0.1000  2.1542 31.2390 39.5411
294 33 3  0.1000  1.2107 30.5026 40.7689
295 34 2 -0.2000  9.9442  9.8794 42.1623
296 34 3  0.1000 11.5061  8.6927 41.6047
297 34 3  0.1000 10.3904  8.9735 40.2053
298 35 2 -0.2000 33.2788 42.3697  7.5045
299 35 3  0.1000 34.7538 40.7752  6.9558
300 35 3  0.1000 33.7516 41.5359  5.5900
301 36 2 -0.2000 29.0134 23.9578  0.5561
302 36 3  0.1000 27.8763 25.2686  1.7547
303 36 3  0.1000 29.4545 24.9522  2.2066
304 37 2 -0.2000 35.9603 15.4365 27.8969
305 37 3  0.1000 34.2878 16.7926 28.2001
306 37 3  0.1000 35.1836 16.9596 26.5949
307 20 2 -0.2000 25.1819 17.5403 15.3476
308 20 3  0.1000 23.1760 17.6324 15.7853
309 20 3  0.1000 23.8713 16.2201 16.5214
310 21 2 -0.2000 40.5280 13.1029 36.1040
311 21 3  0.1000 40.0371 11.0977 36.9781
312 21 3  0.1000 39.1162 12.4660 37.5335
313 22 2 -0.2000  0.8514 40.6754 26.5771
314 22 3  0.1000  0.5729 38.7214 27.5043
315 22 3  0.1000 -1.0075 39.5414 26.8952
316 23 2 -0.2000 37.7232 15.7469  8.0828
317 23 3  0.1000 36.8985 13.8447  8.7250
318 23 3  0.1000 36.9372 14.9772  9.9220
319 24 2 -0.2000 28.8699  0.1559 -0.8446
320 24 3  0.1000 28.3776  2.0520 -2.0345
321 24 3  0.1000 26.9544  1.0569 -1.3968
322 25 2 -0.2000 35.0193 41.9727 22.1742
323 25 3  0.1000 33.6655 40.3358 22.8129
324 25 3  0.1000 33.0434 42.0637 23.1511
325 26 2 -0.2000  1.7152 11.1471 17.8007
326 26 3  0.1000  1.7394 10.4198 15.8156
327 26 3  0.1000  2.6540  9.5449 16.9406
328 27 2 -0.2000 36.1775 16.4851 -1.2190
329 27 3  0.1000 36.3476 16.9180  0.9871
330 27 3  0.1000 37.5309 17.9875 -0.0842
331 28 2 -0.2000  7.7096  5.0667 24.9273
332 28 3  0.1000  9.4805  3.9448 24.8822
333 28 3  0.1000  7.8872  3.1554 24.4982
334 29 2 -0.2000  4.4967 30.6975  0.4706
335 29 3  0.1000  2.6937 30.9017  1.7421
336 29 3  0.1000  3.2848 29.3182  1.6308
337 30 2 -0.2000 29.0785 12.5083  1.1377
338 30 3  0.1000 26.9254 11.5417  0.9153
339 30 3  0.1000 27.3362 12.2247  2.4410
340 31 2 -0.2000 44.7298 26.4465 36.3085
341 31 3  0.1000 44.5957 25.3897 34.2781
342 31 3  0.1000 44.3154 24.4278 35.5532
343 32 2 -0.2000 26.3933 36.1591 40.2188
344 32 3  0.1000 25.4398 34.2360 39.9736
345 32 3  0.1000 24.3582 35.4275 40.5344
346 33 2 -0.2000 -0.1187 32.4708 39.9988
347 33 3  0.1000 -0.6435 30.7843 38.7318
348 33 3  0.1000  0.5570 31.6955 38.0654
349 34 2 -0.2000 10.2837  9.0801 43.4145
350 34 3  0.1000  8.8377  9.6587 41.9227
351 34 3  0.1000  9.9933 10.9850 42.2265
352 35 2 -0.2000 33.7863 42.6452  8.8841
353 35 3  0.1000 32.4178 41.7423  7.4185
354 35 3  0.1000 32.9347 43.3154  7.0917
355 36 2 -0.2000 27.6331 23.2971  0.3859
356 36 3  0.1000 29.5586 23.1735  1.2374
357 36 3  0.1000 29.6589 23.9453 -0.3693
358 37 2 -0.2000 37.1094 15.2567 26.8750
359 37 3  0.1000 35.7293 14.4813 28.4816
360 37 3  0.1000 36.4598 16.0690 28.6705
361 20 2 -0.2000 25.0694 16.7954 14.0559
362 20 3  0.1000 26.1187 17.2914 15.7882
363 20 3  0.1000 25.2866 18.6494 15.0448
364 21 2 -0.2000 39.9699 14.4742 36.2475
365 21 3  0.1000 41.1332 12.8743 35.1801
366 21 3  0.1000 41.2555 13.1301 36.9039
367 22 2 -0.2000 -0.1992 41.8147 26.4956
368 22 3  0.1000  1.6094 40.7040 25.8401
369 22 3  0.1000  1.4781 40.8967 27.4690
370 23 2 -0.2000 38.4292 14.8577  7.0633
371 23 3  0.1000 38.4748 16.2213  8.6695
372 23 3  0.1000 37.1903 16.5414  7.5750
373 24 2 -0.2000 29.5199 -0.3205 -2.1927
374 24 3  0.1000 28.3450 -0.5421 -0.1181
375 24 3  0.1000 29.6966  0.5251 -0.2290
376 25 2 -0.2000 35.2815 43.3838 22.7182
377 25 3  0.1000 35.3845 41.9937 21.0142
378 25 3  0.1000 35.7630 41.3448 22.6739
379 26 2 -0.2000  2.7337 12.1075 17.2595
380 26 3  0.1000  1.8249 10.8103 18.8743
381 26 3  0.1000  0.7679 11.6425 17.8043
382 27 2 -0.2000 36.9335 16.9730 -2.4328
383 27 3  0.1000 35.0977 16.2281 -1.4075
384 27 3  0.1000 36.5313 15.5009 -0.9438
385 28 2 -0.2000  8.0499  5.0934 26.3910
386 28 3  0.1000  6.6747  4.9878 24.6966
387 28 3  0.1000  8.0094  5.9927 24.4962
388 29 2 -0.2000  5.9008 31.0284  0.9403
389 29 3  0.1000  4.0757 31.4774 -0.1735
390 29 3  0.1000  4.5278 29.7094 -0.1430
391 30 2 -0.2000 29.4482 11.3680  0.1892
392 30 3  0.1000 29.6725 12.4800  2.0951
393 30 3  0.1000 29.2715 13.4387  0.5308
394 31 2 -0.2000 46.1825 26.0846 36.4970
395 31 3  0.1000 44.1752 26.6879 37.3140
396 31 3  0.1000 44.7828 27.3755 35.8228
397 32 2 -0.2000 27.6683 35.8054 39.3634
398 32 3  0.1000 26.2844 36.1662 41.3001
399 32 3  0.1000 26.0516 37.1522 39.9337
400 33 2 -0.2000 -0.8570 33.7134 39.4292
401 33 3  0.1000  0.7481 32.6651 40.5837
402 33 3  0.1000 -0.9035 31.9130 40.5900
403 34 2 -0.2000 10.8632 10.1620 44.4246
404 34 3  0.1000 10.9263  8.1729 43.2626
405 34 3  0.1000  9.2996  8.7698 43.7940
406 35 2 -0.2000 33.2606 43.8170  9.7647
407 35 3  0.1000 34.8958 42.4500  8.9917
408 35 3  0.1000 33.4839 41.6556  9.3979
409 36 2 -0.2000 26.9373 23.8986 -0.8626
410 36 3  0.1000 26.8695 23.4317  1.2962
411 36 3  0.1000 27.7384 22.2003  0.2509
412 37 2 -0.2000 37.1979 13.9399 26.0892
413 37 3  0.1000 38.0815 15.4993 27.3792
414 37 3  0.1000 36.9638 16.0223 26.0408
415 20 3  0.1000 24.1384 16.1742 13.6432
416 20 3  0.1000 25.6635 15.9118 14.3684
417 20 2 -0.2000 25.9862 17.2651 12.8810
418 21 3  0.1000 39.5546 14.7136 37.3351
419 21 3  0.1000 39.1067 14.6138 35.5887
420 21 2 -0.2000 41.1433 15.2885 35.8319
421 22 3  0.1000 -1.0253 41.7954 25.7289
422 22 3  0.1000  0.3130 42.7515 26.1921
423 22 2 -0.2000 -0.7194 42.2219 27.8466
424 23 3  0.1000 39.0998 14.0693  7.5083
425 23 3  0.1000 39.0628 15.5596  6.5324
426 23 2 -0.2000 37.2971 14.4115  6.1162
427 24 3  0.1000 30.0325 -1.3421 -2.0706
428 24 3  0.1000 30.4369  0.4021 -2.3146
429 24 2 -0.2000 28.5826 -0.2786 -3.4642
430 25 3  0.1000 35.1287 44.0992 21.9105
431 25 3  0.1000 36.3785 43.4136 22.8146
432 25 2 -0.2000 34.6216 43.5828 24.0731
433 26 3  0.1000  2.4310 12.5333 16.2694
434 26 3  0.1000  3.6969 11.6257 17.0842
435 26 2 -0.2000  2.8545 13.0498 18.4091
436 27 3  0.1000 38.0493 16.7263 -2.5519
437 27 3  0.1000 36.9152 18.1567 -2.3678
438 27 2 -0.2000 36.0080 16.7914 -3.5910
439 28 3  0.1000  9.1347  5.1769 26.5377
440 28 3  0.1000  7.6855  4.1086 26.8558
441 28 2 -0.2000  7.2956  6.2132 27.1201
442 29 3  0.1000  5.9890 31.3031  1.9643
443 29 3  0.1000  6.2358 32.0238  0.4941
444 29 2 -0.2000  7.0696 30.0005  0.6016
445 30 3  0.1000 29.0164 11.3078 -0.7652
446 30 3  0.1000 29.0679 10.5029  0.7478
447 30 2 -0.2000 30.8956 11.4779  0.3669
448 31 3  0.1000 46.3635 25.1563 37.0431
449 31 3  0.1000 46.6008 26.8359 37.1883
450 31 2 -0.2000 47.0118 26.2278 35.1009
451 32 3  0.1000 28.5433 36.4315 39.6312
452 32 3  0.1000 27.5106 36.1650 38.3387
453 32 2 -0.2000 28.0429 34.2240 39.1948
454 33 3  0.1000 -1.2964 33.5511 38.4781
455 33 3  0.1000 -0.0380 34.3181 39.1169
456 33 2 -0.2000 -1.6528 34.7010 40.3330
457 34 3  0.1000 11.5491 10.8146 43.9929
458 34 3  0.1000 11.4356  9.4143 45.0399
459 34 2 -0.2000  9.7136 10.6459 45.3264
460 35 3  0.1000 33.6420 44.7513  9.4110
461 35 3  0.1000 33.8819 43.7267 10.5824
462 35 2 -0.2000 31.8257 43.8278 10.3915
463 36 3  0.1000 27.5066 23.8750 -1.8366
464 36 3  0.1000 26.6128 24.9180 -0.7285
465 36 2 -0.2000 25.6540 23.0098 -0.8725
466 37 3  0.1000 36.1807 13.5432 25.6956
467 37 3  0.1000 37.3938 13.1646 26.9084
468 37 2 -0.2000 38.1606 13.7328 24.9540
469 20 2 -0.2000 26.2587 15.8983 12.1188
470 20 3  0.1000 26.8935 17.8067 13.1646
471 20 3  0.1000 25.5497 18.0307 12.1573
472 21 2 -0.2000 41.7473 15.1044 34.4415
473 21 3  0.1000 41.9791 15.2394 36.5300
474 21 3  0.1000 40.7557 16.2876 35.8176
475 22 2 -0.2000 -2.1363 42.5868 27.5849
476 22 3  0.1000 -0.1904 42.9245 28.4820
477 22 3  0.1000 -0.8286 41.3512 28.4305
478 23 2 -0.2000 37.0467 12.9294  6.1170
479 23 3  0.1000 37.3468 14.8252  5.0223
480 23 3  0.1000 36.3700 14.8746  6.4961
481 24 2 -0.2000 29.0642  0.7685 -4.5207
482 24 3  0.1000 27.5732 -0.1161 -3.1387
483 24 3  0.1000 28.5463 -1.1853 -3.9123
484 25 2 -0.2000 35.0875 44.8532 24.8934
485 25 3  0.1000 34.7848 42.6701 24.6473
486 25 3  0.1000 33.5650 43.6036 23.9261
487 26 2 -0.2000  4.2697 13.0091 19.0183
488 26 3  0.1000  2.0170 12.7848 19.1512
489 26 3  0.1000  2.5976 14.0917 18.0213
490 27 2 -0.2000 36.6633 17.4517 -4.8880
491 27 3  0.1000 35.1038 17.1713 -3.1564
492 27 3  0.1000 35.9962 15.6647 -3.8392
493 28 2 -0.2000  7.6001  7.5874 26.4100
494 28 3  0.1000  7.5195  6.4501 28.2294
495 28 3  0.1000  6.2069  6.1007 27.0959
496 29 2 -0.2000  6.5524 28.6365  0.9566
497 29 3  0.1000  8.0594 30.1417  0.9676
498 29 3  0.1000  7.1987 30.0074 -0.4961
499 30 2 -0.2000 31.5159 10.1038  0.2350
500 30 3  0.1000 31.1207 11.8945  1.3885
501 30 3  0.1000 31.2992 12.1192 -0.4268
502 31 2 -0.2000 47.2697 27.6682 34.4940
503 31 3  0.1000 46.8129 25.4909 34.3512
504 31 3  0.1000 47.9944 25.9050 35.4160
505 32 2 -0.2000 29.4812 33.9191 38.5770
506 32 3  0.1000 27.1936 33.6231 38.9464
507 32 3  0.1000 28.2388 33.8611 40.2517
508 33 2 -0.2000 -2.7030 35.5040 39.6472
509 33 3  0.1000 -0.9553 35.0772 40.9179
510 33 3  0.1000 -2.2512 34.0804 41.0442
511 34 2 -0.2000  9.0342 11.8646 44.6183
512 34 3  0.1000 10.1222 11.0638 46.3431
513 34 3  0.1000  8.8327 10.0035 45.6451
514 35 2 -0.2000 31.1009 45.1421 10.4328
515 35 3  0.1000 31.8714 43.2218 11.3454
516 35 3  0.1000 31.1924 43.1871  9.7848
517 36 2 -0.2000 25.6220 21.6574 -1.7051
518 36 3  0.1000 24.8266 23.6495 -1.2548
519 36 3  0.1000 25.4258 22.7876  0.1886
520 37 2 -0.2000 39.0103 14.8979 24.6598
521 37 3  0.1000 37.7551 13.2993 23.9884
522 37 3  0.1000 38.7930 12.8776 25.2445
523 20 2 -0.2000 25.1637 15.9804 11.0782
524 20 3  0.1000 26.2550 14.9848 12.7223
525 20 3  0.1000 27.2607 15.8526 11.6577
526 21 2 -0.2000 42.4089 16.3621 34.1028
527 21 3  0.1000 41.0187 14.6459 33.7828
528 21 3  0.1000 42.5103 14.3846 34.4700
529 22 2 -0.2000 -2.9240 42.7905 28.8301
530 22 3  0.1000 -2.6815 41.9624 26.8872
531 22 3  0.1000 -2.1460 43.5759 27.0023
532 23 2 -0.2000 35.5948 12.7485  5.7046
533 23 3  0.1000 36.9997 12.5052  7.0543
534 23 3  0.1000 37.7454 12.3450  5.5032
535 24 2 -0.2000 30.3140  0.2530 -5.1482
536 24 3  0.1000 29.1035  1.8631 -4.2949
537 24 3  0.1000 28.1391  0.7420 -5.2778
538 25 2 -0.2000 34.1633 46.0834 24.6733
539 25 3  0.1000 36.1442 45.1275 24.8679
540 25 3  0.1000 34.9760 44.5139 25.9592
541 26 2 -0.2000  5.4328 13.1347 17.9792
542 26 3  0.1000  4.2541 12.1127 19.6687
543 26 3  0.1000  4.4138 13.9419 19.6752
544 27 2 -0.2000 35.7438 18.5048 -5.5714
545 27 3  0.1000 37.1430 16.6873 -5.6437
546 27 3  0.1000 37.6024 18.0618 -4.5793
547 28 2 -0.2000  7.2724  8.8049 27.2793
548 28 3  0.1000  7.1363  7.7679 25.3491
549 28 3  0.1000  8.6381  7.4738 26.2023
550 29 2 -0.2000  7.5980 27.5681  0.6525
551 29 3  0.1000  5.5650 28.3794  0.5387
552 29 3  0.1000  6.3789 28.5349  2.0137
553 30 2 -0.2000 31.5791  9.4021  1.5092
554 30 3  0.1000 32.4430 10.0423 -0.2748
555 30 3  0.1000 30.8088  9.5464 -0.4617
556 31 2 -0.2000 46.7300 27.7675 33.0973
557 31 3  0.1000 48.3807 27.7840 34.4519
558 31 3  0.1000 46.8428 28.4066 35.1783
559 32 2 -0.2000 29.6604 32.6685 37.8260
560 32 3  0.1000 30.3009 34.1741 39.3095
561 32 3  0.1000 29.6980 34.7328 37.8074
562 33 2 -0.2000 -2.2368 36.9868 39.2255
563 33 3  0.1000 -3.6572 35.5198 40.1680
564 33 3  0.1000 -2.8502 34.9462 38.7271
565 34 2 -0.2000 10.1668 12.9246 44.7342
566 34 3  0.1000  8.0741 12.3004 45.0633
567 34 3  0.1000  8.7707 11.5694 43.5243
568 35 2 -0.2000 30.8626 45.4681 11.8752
569 35 3  0.1000 30.2123 45.0604  9.7840
570 35 3  0.1000 31.5628 46.0820  9.9320
571 36 2 -0.2000 25.6349 20.3991 -0.7867
572 36 3  0.1000 26.4469 21.5920 -2.4859
573 36 3  0.1000 24.7055 21.6953 -2.2699
574 37 2 -0.2000 39.9735 14.4582 23.6258
575 37 3  0.1000 39.5245 15.3513 25.5666
576 37 3  0.1000 38.3114 15.6348 24.2118
577 20 2 -0.2000 25.1894 17.0191  9.8802
578 20 3  0.1000 24.2056 15.9603 11.5997
579 20 3  0.1000 25.1011 15.0853 10.5437
580 21 2 -0.2000 43.1708 16.1264 32.7513
581 21 3  0.1000 43.1570 16.7724 34.8466
582 21 3  0.1000 41.6436 17.1122 33.9467
583 22 2 -0.2000 -2.4984 43.9739 29.7865
584 22 3  0.1000 -2.9921 41.8778 29.3136
585 22 3  0.1000 -3.9799 42.9411 28.4995
586 23 2 -0.2000 34.8403 11.7798  6.6316
587 23 3  0.1000 35.4301 12.5411  4.6086
588 23 3  0.1000 35.0899 13.6864  5.9575
589 24 2 -0.2000 30.2955  0.6745 -6.6825
590 24 3  0.1000 30.4561 -0.8443 -4.8782
591 24 3  0.1000 31.2502  0.6847 -4.7702
592 25 2 -0.2000 34.4949 46.9914 23.4904
593 25 3  0.1000 34.0296 46.6405 25.5781
594 25 3  0.1000 33.1820 45.6012 24.4523
595 26 2 -0.2000  6.4664 13.9554 18.6991
596 26 3  0.1000  5.2480 13.5054 16.9774
597 26 3  0.1000  5.8316 12.1725 17.7528
598 27 2 -0.2000 35.5417 18.2603 -7.1164
599 27 3  0.1000 35.9966 19.5016 -5.3965
600 27 3  0.1000 34.7499 18.4643 -5.0368
601 28 2 -0.2000  6.9839  8.6979 28.8031
602 28 3  0.1000  6.6617  9.5032 26.7561
603 28 3  0.1000  8.3437  9.2722 27.3263
604 29 2 -0.2000  8.8283 28.0306  1.4753
605 29 3  0.1000  7.8359 27.4189 -0.4468
606 29 3  0.1000  7.2767 26.6152  1.0214
607 30 2 -0.2000 33.0575  9.5812  2.0287
608 30 3  0.1000 31.3397  8.3755  1.4438
609 30 3  0.1000 30.8344  9.8402  2.2843
610 31 2 -0.2000 47.6885 28.5127 32.1586
611 31 3  0.1000 45.7442 28.1451 33.1060
612 31 3  0.1000 46.5949 26.7964 32.5710
613 32 2 -0.2000 28.4084 32.3378 36.9673
614 32 3  0.1000 29.9101 31.8452 38.5038
615 32 3  0.1000 30.4643 32.8668 37.0862
616 33 2 -0.2000 -1.3127 37.7052 40.1162
617 33 3  0.1000 -2.9554 37.5993 38.7688
618 33 3  0.1000 -1.5742 36.8508 38.3778
619 34 2 -0.2000  9.8264 14.1744 43.9303
620 34 3  0.1000 11.2077 12.5654 44.5855
621 34 3  0.1000 10.1321 13.1486 45.8947
622 35 2 -0.2000 29.6485 44.9404 12.5735
623 35 3  0.1000 31.0738 46.4541 12.1945
624 35 3  0.1000 31.7565 44.9391 12.4464
625 36 2 -0.2000 25.2003 18.9997 -1.2781
626 36 3  0.1000 25.1572 20.5382  0.1741
627 36 3  0.1000 26.6850 20.3451 -0.6841
628 37 2 -0.2000 41.3362 14.3605 24.2390
629 37 3  0.1000 39.7727 14.9253 22.6173
630 37 3  0.1000 39.7046 13.3912 23.4933
631 20 2 -0.2000 23.7925 17.5656  9.4513
632 20 3  0.1000 25.9192 16.6577  9.1591
633 20 3  0.1000 25.7186 17.8724 10.2798
634 21 2 -0.2000 43.7031 17.3249 31.9321
635 21 3  0.1000 42.6025 15.2598 32.1741
636 21 3  0.1000 44.0565 15.6456 32.9660
637 22 2 -0.2000 -3.8623 44.7927 30.0327
638 22 3  0.1000 -1.7518 44.5529 29.3097
639 22 3  0.1000 -2.0231 43.7211 30.8067
640 23 2 -0.2000 35.6592 10.6524  7.2043
641 23 3  0.1000 33.9198 11.5088  6.0826
642 23 3  0.1000 34.4571 12.2746  7.4885
643 24 2 -0.2000 31.7050  1.3607 -7.1345
644 24 3  0.1000 29.3414  1.2442 -6.8574
645 24 3  0.1000 30.2339 -0.3571 -7.2106
646 25 2 -0.2000 35.6970 47.9078 24.0378
647 25 3  0.1000 33.5888 47.4500 23.0075
648 25 3  0.1000 34.9960 46.4539 22.6341
649 26 2 -0.2000  7.7556 13.1990 18.6621
650 26 3  0.1000  6.1403 14.1046 19.7346
651 26 3  0.1000  6.4636 14.9493 18.2589
652 27 2 -0.2000 34.0816 18.0736 -7.3248
653 27 3  0.1000 36.2649 17.5728 -7.7110
654 27 3  0.1000 35.8197 19.1539 -7.6019
655 28 2 -0.2000  8.0639  8.8103 29.8545
656 28 3  0.1000  6.1296  7.9530 29.1353
657 28 3  0.1000  6.4260  9.6727 29.0037
658 29 2 -0.2000  9.3521 26.7122  2.0876
659 29 3  0.1000  8.7170 28.7059  2.3065
660 29 3  0.1000  9.6335 28.4636  0.7792
661 30 2 -0.2000 33.9611  8.4616  2.3990
662 30 3  0.1000 33.1947 10.4289  2.5948
663 30 3  0.1000 33.5695  9.9747  1.1507
664 31 2 -0.2000 47.7124 29.9770 32.3768
665 31 3  0.1000 47.6090 28.0803 31.1073
666 31 3  0.1000 48.5435 28.0790 32.5764
667 32 2 -0.2000 28.6438 31.0846 36.1662
668 32 3  0.1000 28.0265 33.2248 36.3606
669 32 3  0.1000 27.5331 32.0889 37.5979
670 33 2 -0.2000 -1.3749 39.0919 39.4663
671 33 3  0.1000 -0.2586 37.2330 40.1525
672 33 3  0.1000 -1.7274 37.7973 41.1832
673 34 2 -0.2000 10.7881 15.3944 43.8745
674 34 3  0.1000  8.8160 14.4436 44.1886
675 34 3  0.1000  9.8227 13.8422 42.9385
676 35 2 -0.2000 30.0198 44.0893 13.7877
677 35 3  0.1000 28.8828 44.5575 11.8545
678 35 3  0.1000 29.2550 45.7717 13.0451
679 36 2 -0.2000 26.0650 18.2966 -2.3732
680 36 3  0.1000 24.2134 19.1777 -1.6131
681 36 3  0.1000 25.0614 18.3843 -0.4184
682 37 2 -0.2000 42.1505 13.1744 23.6201
683 37 3  0.1000 41.3752 14.3284 25.3326
684 37 3  0.1000 41.8698 15.2482 23.8303
685 20 2 -0.2000 23.5204 19.0306  9.1708
686 20 3  0.1000 22.9767 17.0675 10.0817
687 20 3  0.1000 23.5908 17.0987  8.4894
688 21 2 -0.2000 43.7285 17.0473 30.3542
689 21 3  0.1000 44.7694 17.7038 32.1606
690 21 3  0.1000 42.9872 18.2025 32.1887
691 22 2 -0.2000 -3.4988 46.1926 30.1117
692 22 3  0.1000 -4.6793 44.4026 30.7168
693 22 3  0.1000 -4.3889 44.7408 29.1280
694 23 2 -0.2000 34.8521  9.3804  7.4621
695 23 3  0.1000 36.4697 10.9245  8.0446
696 23 3  0.1000 36.2825 10.4337  6.3469
697 24 2 -0.2000 31.3783  2.7355 -7.6560
698 24 3  0.1000 32.1958  0.7938 -7.8419
699 24 3  0.1000 32.3246  1.3897 -6.3139
700 25 2 -0.2000 35.6231 49.0508 22.9656
701 25 3  0.1000 36.7360 47.4207 24.1993
702 25 3  0.1000 35.4265 48.3431 24.9747
703 26 2 -0.2000  8.5731 13.4365 17.3840
704 26 3  0.1000  7.6360 12.1006 18.8623
705 26 3  0.1000  8.4087 13.4320 19.6387
706 27 2 -0.2000 33.9995 16.8568 -8.2463
707 27 3  0.1000 33.6087 18.9670 -7.7206
708 27 3  0.1000 33.6297 17.9286 -6.3596
709 28 2 -0.2000  8.8695 10.0114 30.0931
710 28 3  0.1000  8.7155  7.9041 30.1028
711 28 3  0.1000  7.4348  8.7567 30.7437
712 29 2 -0.2000 10.1863 25.9132  1.1316
713 29 3  0.1000  8.6064 26.1478  2.5670