LAMMPS DATA FILE

4032 atoms 
 4014 bonds 
 7992 angles 
 11826 dihedrals 
 0 impropers 

 3 atom types 
 4 bond types 
 7 angle types 
 8 dihedral types 
 0 improper types 

0.00000  40.0000  xlo xhi
0.00000  40.0000  ylo yhi
0.00000  40.0000  zlo zhi

Masses

1  12.01115 
2  12.01115 
3  1.00797 

Pair Coeffs

1  0.038999995200   3.875409
2  0.038999995200   3.875409
3  0.038000001100   2.449971

Bond Coeffs

1 322.715800 1.526000 
2 340.617500 1.105000 
3 322.715800 1.526000 
4 340.617500 1.105000 

Angle Coeffs

1 46.600000 110.500000 
2 46.600000 110.500000 
3 44.400000 110.000000 
4 39.500000 106.400000 
5 44.400000 110.000000 
6 44.400000 110.000000 
7 39.500000 106.400000 

Dihedral Coeffs

1 0.158100 1 3 
2 0.158100 1 3 
3 0.158100 1 3 
4 0.158100 1 3 
5 0.158100 1 3 
6 0.158100 1 3 
7 0.158100 1 3 
8 0.158100 1 3 

Atoms

1 20 1 -0.3000 13.2723 29.8427 16.2807
2 20 2 -0.2000 12.6801 28.6974 17.0087
3 20 3  0.1000 14.3514 29.8851 16.4888
4 20 3  0.1000 12.6822 30.7399 16.1534
5 20 3  0.1000 13.3253 29.3962 15.2594
6 20 2 -0.2000 12.0668 27.5013 16.2557
7 20 3  0.1000 11.9795 28.7478 17.8545
8 20 3  0.1000 13.5729 28.3051 17.4364
9 20 2 -0.2000 11.4652 27.8435 14.8717
10 20 3  0.1000 11.4123 26.9497 17.0536
11 20 3  0.1000 12.9156 26.7464 16.1095
12 21 1 -0.3000 39.7633 18.3769 14.6778
13 21 2 -0.2000 38.5114 17.7388 15.0628
14 21 3  0.1000 39.7370 18.4340 13.5522
15 21 3  0.1000 40.6996 17.9092 15.0312
16 21 3  0.1000 39.7286 19.4301 14.9862
17 21 2 -0.2000 38.2955 16.2146 14.7549
18 21 3  0.1000 37.7358 18.4190 14.6441
19 21 3  0.1000 38.4733 17.8203 16.2125
20 21 2 -0.2000 37.6734 15.2792 15.8149
21 21 3  0.1000 39.1297 15.8277 14.2363
22 21 3  0.1000 37.5253 16.0869 13.9691
23 22 1 -0.3000  1.4778 34.2895 20.5874
24 22 2 -0.2000  0.8316 34.1414 19.2547
25 22 3  0.1000  2.2720 33.4815 20.7984
26 22 3  0.1000  0.8171 34.4881 21.4990
27 22 3  0.1000  2.1776 35.1781 20.6009
28 22 2 -0.2000  0.0226 32.9052 19.5031
29 22 3  0.1000  1.5376 34.0287 18.4329
30 22 3  0.1000  0.1142 35.0182 19.0346
31 22 2 -0.2000 -1.2196 33.0675 18.7238
32 22 3  0.1000 -0.1820 32.6248 20.5232
33 22 3  0.1000  0.5223 32.0384 19.1328
34 23 1 -0.3000 16.2434 10.0859 21.0196
35 23 2 -0.2000 16.7930  9.6327 19.6537
36 23 3  0.1000 17.0194 10.2672 21.7593
37 23 3  0.1000 15.3447  9.4397 21.4389
38 23 3  0.1000 15.7221 11.0666 20.7417
39 23 2 -0.2000 18.2225  9.0649 20.0497
40 23 3  0.1000 16.8844 10.4559 18.8844
41 23 3  0.1000 16.1691  8.8367 19.2914
42 23 2 -0.2000 19.2945 10.1602 20.2856
43 23 3  0.1000 18.5275  8.1695 19.5362
44 23 3  0.1000 18.1037  8.4901 20.9722
45 24 1 -0.3000 20.1491 27.3994  6.2576
46 24 2 -0.2000 19.9717 28.6641  7.1046
47 24 3  0.1000 19.5467 27.4415  5.3226
48 24 3  0.1000 19.8086 26.4704  6.7079
49 24 3  0.1000 21.1863 27.3303  6.0806
50 24 2 -0.2000 19.4760 28.2125  8.5000
51 24 3  0.1000 19.5085 29.6152  6.6805
52 24 3  0.1000 21.0615 28.9526  7.2458
53 24 2 -0.2000 17.9938 28.4961  8.8731
54 24 3  0.1000 20.2800 28.4312  9.3557
55 24 3  0.1000 19.5103 27.1479  8.4973
56 25 1 -0.3000 10.6982  1.8209  9.0493
57 25 2 -0.2000 12.1738  1.6414  9.4876
58 25 3  0.1000  9.9701  1.6036  9.8658
59 25 3  0.1000 10.3434  1.4054  8.0610
60 25 3  0.1000 10.5304  2.9791  8.9014
61 25 2 -0.2000 12.6525  0.3305 10.1189
62 25 3  0.1000 12.6114  2.4548 10.0623
63 25 3  0.1000 12.7993  1.6707  8.5817
64 25 2 -0.2000 13.5129  0.2898 11.4747
65 25 3  0.1000 13.0498 -0.3365  9.3282
66 25 3  0.1000 11.7509 -0.2729 10.4540
67 26 1 -0.3000 17.6759 37.8974 23.9907
68 26 2 -0.2000 18.3449 39.1301 24.7270
69 26 3  0.1000 16.6668 38.0938 23.6265
70 26 3  0.1000 17.8258 37.1038 24.7099
71 26 3  0.1000 18.1989 37.5461 23.0729
72 26 2 -0.2000 19.2046 39.9698 23.8107
73 26 3  0.1000 18.9957 38.5417 25.5245
74 26 3  0.1000 17.5541 39.7598 25.2929
75 26 2 -0.2000 18.3951 41.1686 23.4719
76 26 3  0.1000 19.7144 39.5314 22.8982
77 26 3  0.1000 20.0984 40.3057 24.4276
78 27 1 -0.3000 26.2242  5.9477 37.7393
79 27 2 -0.2000 27.7191  5.4750 37.5727
80 27 3  0.1000 25.8612  5.7205 38.7955
81 27 3  0.1000 25.3672  5.7571 37.0627
82 27 3  0.1000 26.3538  7.1323 37.6935
83 27 2 -0.2000 28.0189  4.0915 36.9924
84 27 3  0.1000 28.3119  5.7730 38.3833
85 27 3  0.1000 28.0362  6.2358 36.7910
86 27 2 -0.2000 28.8324  3.3021 38.1074
87 27 3  0.1000 28.5014  4.0280 35.9349
88 27 3  0.1000 26.9835  3.5596 36.9212
89 28 1 -0.3000 25.5019 16.0657 16.9357
90 28 2 -0.2000 26.0318 14.7340 16.2967
91 28 3  0.1000 24.9519 16.6380 16.1445
92 28 3  0.1000 26.1779 16.7202 17.5633
93 28 3  0.1000 24.7158 15.7735 17.5871
94 28 2 -0.2000 27.4604 14.4931 16.8580
95 28 3  0.1000 26.0313 14.6611 15.1744
96 28 3  0.1000 25.4309 13.8463 16.5992
97 28 2 -0.2000 27.4665 12.9316 17.0220
98 28 3  0.1000 27.6353 14.9547 17.8661
99 28 3  0.1000 28.1748 14.8757 16.1920
100 29 1 -0.3000 16.6224 24.8538  0.3295
101 29 2 -0.2000 16.6745 25.0408  1.9086
102 29 3  0.1000 16.7371 23.7681  0.1204
103 29 3  0.1000 17.3647 25.5361 -0.1539
104 29 3  0.1000 15.5523 25.0867  0.0608
105 29 2 -0.2000 15.2850 25.6058  2.4563
106 29 3  0.1000 17.6183 25.6635  2.1527
107 29 3  0.1000 16.6750 24.0898  2.4810
108 29 2 -0.2000 14.3726 24.7076  3.3239
109 29 3  0.1000 14.8050 26.2331  1.7112
110 29 3  0.1000 15.6184 26.3285  3.2017
111 30 1 -0.3000 24.0958 39.9983  8.6698
112 30 2 -0.2000 22.6843 40.0281  8.7134
113 30 3  0.1000 24.4195 41.0483  8.3364
114 30 3  0.1000 24.7362 39.2854  8.0755
115 30 3  0.1000 24.5220 39.9034  9.7057
116 30 2 -0.2000 21.9501 38.6181  8.9156
117 30 3  0.1000 22.3005 40.8171  7.9545
118 30 3  0.1000 22.3044 40.5213  9.6184
119 30 2 -0.2000 21.3350 38.0669  7.6339
120 30 3  0.1000 21.3040 38.6491  9.8084
121 30 3  0.1000 22.8674 37.8669  9.0860
122 31 1 -0.3000 34.7823 37.9421 24.5960
123 31 2 -0.2000 35.1807 36.7515 25.3360
124 31 3  0.1000 34.3531 38.7798 25.2952
125 31 3  0.1000 34.0976 37.6210 23.8975
126 31 3  0.1000 35.7389 38.3094 24.0895
127 31 2 -0.2000 35.6211 37.4728 26.5381
128 31 3  0.1000 36.0304 36.2080 24.8952
129 31 3  0.1000 34.3114 36.1532 25.5995
130 31 2 -0.2000 34.8813 37.0276 27.7947
131 31 3  0.1000 35.7513 38.5194 26.5391
132 31 3  0.1000 36.7142 37.1640 26.7066
133 32 1 -0.3000  6.7447 23.0225 17.3898
134 32 2 -0.2000  5.6586 23.4155 16.4770
135 32 3  0.1000  7.0491 21.9662 17.2267
136 32 3  0.1000  6.5439 23.1968 18.4513
137 32 3  0.1000  7.5889 23.6511 17.1864
138 32 2 -0.2000  5.6192 24.8761 16.8555
139 32 3  0.1000  4.7083 22.9139 16.5379
140 32 3  0.1000  5.9719 23.3552 15.4236
141 32 2 -0.2000  5.5927 25.3038 18.2883
142 32 3  0.1000  4.7383 25.4732 16.3372
143 32 3  0.1000  6.5315 25.3228 16.4104
144 33 1 -0.3000  3.3573 19.0821 12.9680
145 33 2 -0.2000  4.4924 18.7756 13.8927
146 33 3  0.1000  3.6680 19.5717 12.0660
147 33 3  0.1000  2.5036 19.6834 13.4947
148 33 3  0.1000  2.9132 18.1392 12.5570
149 33 2 -0.2000  4.2291 18.4851 15.3268
150 33 3  0.1000  5.4799 19.3272 13.6851
151 33 3  0.1000  4.8247 17.8690 13.5347
152 33 2 -0.2000  4.5287 17.0588 15.7528
153 33 3  0.1000  3.1596 18.6577 15.6995
154 33 3  0.1000  4.9611 19.0319 16.0097
155 34 1 -0.3000 14.3796 29.5367 36.6529
156 34 2 -0.2000 13.8508 28.6871 37.7128
157 34 3  0.1000 13.5478 30.3106 36.4346
158 34 3  0.1000 14.9521 28.9301 35.9010
159 34 3  0.1000 15.1222 30.1693 37.0687
160 34 2 -0.2000 12.3739 28.3540 37.6388
161 34 3  0.1000 14.2368 29.0214 38.7847
162 34 3  0.1000 14.3277 27.7252 37.5203
163 34 2 -0.2000 12.0658 27.4850 38.9339
164 34 3  0.1000 12.1941 27.8479 36.6738
165 34 3  0.1000 11.6766 29.1710 37.6155
166 35 1 -0.3000 13.0735 16.2447 33.6615
167 35 2 -0.2000 14.1673 15.2471 34.0651
168 35 3  0.1000 12.4913 15.9787 32.7695
169 35 3  0.1000 13.4410 17.3498 33.6341
170 35 3  0.1000 12.4717 16.2294 34.5238
171 35 2 -0.2000 14.9896 14.5183 33.0337
172 35 3  0.1000 13.7691 14.5745 34.8289
173 35 3  0.1000 14.9549 15.8974 34.6915
174 35 2 -0.2000 15.9755 15.2912 32.0582
175 35 3  0.1000 14.3192 13.9283 32.4520
176 35 3  0.1000 15.6087 13.7261 33.5382
177 36 1 -0.3000 37.1308 39.3336 37.9456
178 36 2 -0.2000 38.0213 40.3024 37.2222
179 36 3  0.1000 36.7143 38.5733 37.2672
180 36 3  0.1000 36.3641 39.9052 38.4890
181 36 3  0.1000 37.8209 38.8360 38.6950
182 36 2 -0.2000 38.3310 41.4124 38.2131
183 36 3  0.1000 37.4512 40.7249 36.3770
184 36 3  0.1000 38.9285 39.7481 36.8181
185 36 2 -0.2000 37.4894 42.7159 37.9474
186 36 3  0.1000 39.3394 41.5716 38.4355
187 36 3  0.1000 37.9577 41.1239 39.1308
188 37 1 -0.3000 33.8717  8.1307  8.2519
189 37 2 -0.2000 33.3869  7.6393  6.8685
190 37 3  0.1000 32.9738  8.2116  8.8985
191 37 3  0.1000 34.2780  9.1915  8.1630
192 37 3  0.1000 34.5721  7.4167  8.6846
193 37 2 -0.2000 32.1200  6.8652  6.9179
194 37 3  0.1000 34.1625  7.2251  6.1700
195 37 3  0.1000 33.0574  8.5732  6.2696
196 37 2 -0.2000 32.2994  5.4800  6.3211
197 37 3  0.1000 31.3844  7.5291  6.4955
198 37 3  0.1000 31.9176  6.6753  8.0038
199 20 2 -0.2000 10.0908 27.2668 14.6042
200 20 3  0.1000 12.2821 27.8442 14.0124
201 20 3  0.1000 11.2449 28.9354 14.9328
202 21 2 -0.2000 38.6058 14.1036 15.9872
203 21 3  0.1000 36.6496 14.9993 15.4171
204 21 3  0.1000 37.5019 15.8874 16.7885
205 22 2 -0.2000 -0.8686 32.7539 17.2579
206 22 3  0.1000 -1.7710 34.0028 18.6950
207 22 3  0.1000 -1.9007 32.3808 19.1861
208 23 2 -0.2000 20.6153  9.4033 20.6789
209 23 3  0.1000 19.0734 10.8249 21.0568
210 23 3  0.1000 19.3544 10.7589 19.3454
211 24 2 -0.2000 17.5186 30.0032  8.9015
212 24 3  0.1000 17.6716 28.0071  9.8043
213 24 3  0.1000 17.3815 27.9518  8.0612
214 25 2 -0.2000 14.9503  0.4503 10.9667
215 25 3  0.1000 13.3483 -0.6238 12.0505
216 25 3  0.1000 13.2261  1.1788 12.0341
217 26 2 -0.2000 18.0053 41.2321 21.9651
218 26 3  0.1000 18.8515 42.1470 23.6977
219 26 3  0.1000 17.5791 41.1813 24.1237
220 27 2 -0.2000 27.9363  2.4407 38.9598
221 27 3  0.1000 29.4292  3.7244 38.8485
222 27 3  0.1000 29.5493  2.6654 37.7013
223 28 2 -0.2000 26.9926 12.2912 18.2566
224 28 3  0.1000 28.3974 12.3367 16.6683
225 28 3  0.1000 26.7467 12.5513 16.2657
226 29 2 -0.2000 14.5053 23.1972  3.0812
227 29 3  0.1000 13.3209 24.9827  3.3235
228 29 3  0.1000 14.7692 24.8641  4.3328
229 30 2 -0.2000 19.8342 38.2593  7.7672
230 30 3  0.1000 21.8105 37.0890  7.4020
231 30 3  0.1000 21.7111 38.6567  6.8302
232 31 2 -0.2000 35.7035 36.9621 29.0764
233 31 3  0.1000 34.4209 36.0365 27.7498
234 31 3  0.1000 34.0048 37.7303 27.9537
235 32 2 -0.2000  5.9223 26.7029 18.3788
236 32 3  0.1000  6.1132 24.8806 19.1614
237 32 3  0.1000  4.5871 25.3262 18.5186
238 33 2 -0.2000  3.1318 16.3648 15.8521
239 33 3  0.1000  5.1005 16.9849 16.6647
240 33 3  0.1000  5.1758 16.5744 14.9878
241 34 2 -0.2000 11.4915 26.2117 38.3014
242 34 3  0.1000 11.4744 27.9691 39.7430
243 34 3  0.1000 13.0560 27.1610 39.3970
244 35 2 -0.2000 16.9925 16.1806 32.8050
245 35 3  0.1000 15.4103 15.7915 31.2219
246 35 3  0.1000 16.5800 14.5470 31.5333
247 36 2 -0.2000 36.3494 42.9008 38.8704
248 36 3  0.1000 37.0918 42.6297 36.9293
249 36 3  0.1000 38.2435 43.6151 38.0901
250 37 2 -0.2000 32.5956  5.3243  4.8173
251 37 3  0.1000 31.3067  4.8178  6.5335
252 37 3  0.1000 33.1492  5.0437  6.9316
253 20 2 -0.2000 10.1702 26.0109 13.8382
254 20 3  0.1000  9.2656 28.0753 14.3930
255 20 3  0.1000  9.7061 26.8919 15.5919
256 21 2 -0.2000 38.8425 13.3571 14.7343
257 21 3  0.1000 38.3718 13.5063 16.8260
258 21 3  0.1000 39.6247 14.5524 16.2094
259 22 2 -0.2000 -1.4968 31.5721 16.5823
260 22 3  0.1000  0.1666 32.6039 17.1786
261 22 3  0.1000 -0.9802 33.5391 16.6117
262 23 2 -0.2000 21.8345  9.7450 19.8189
263 23 3  0.1000 20.7145  8.3102 20.7239
264 23 3  0.1000 20.8028  9.7389 21.7188
265 24 2 -0.2000 16.2911 29.9470  9.8063
266 24 3  0.1000 17.4187 30.3596  7.7394
267 24 3  0.1000 18.2063 30.6733  9.4523
268 25 2 -0.2000 15.3550  1.8929 11.1390
269 25 3  0.1000 15.1287  0.1098  9.9270
270 25 3  0.1000 15.4920 -0.1208 11.5911
271 26 2 -0.2000 16.9014 40.1274 21.6742
272 26 3  0.1000 18.8411 41.3802 21.2408
273 26 3  0.1000 17.4506 42.1984 21.9082
274 27 2 -0.2000 27.7779  2.7051 40.4974
275 27 3  0.1000 28.2853  1.3440 38.7966
276 27 3  0.1000 26.9314  2.4059 38.5486
277 28 2 -0.2000 28.1140 12.3338 19.3028
278 28 3  0.1000 26.7310 11.1566 18.2072
279 28 3  0.1000 26.0935 12.7050 18.7009
280 29 2 -0.2000 13.2470 22.4795  3.2702
281 29 3  0.1000 15.4512 22.5576  3.4175
282 29 3  0.1000 14.7108 23.1664  1.9913
283 30 2 -0.2000 19.1042 39.3693  7.0248
284 30 3  0.1000 19.3363 37.9853  8.7806
285 30 3  0.1000 19.4991 37.3903  7.2062
286 31 2 -0.2000 34.6977 37.2889 30.0490
287 31 3  0.1000 36.6690 37.4851 29.1344
288 31 3  0.1000 35.9905 35.8899 29.0970
289 32 2 -0.2000  5.7584 27.0757 19.8336
290 32 3  0.1000  5.3368 27.3723 17.7395
291 32 3  0.1000  6.9395 26.8388 17.9707
292 33 2 -0.2000  3.1067 14.9309 15.3787
293 33 3  0.1000  2.4545 17.0045 15.3086
294 33 3  0.1000  2.7629 16.2007 16.8837
295 34 2 -0.2000 12.2283 25.1915 39.1114
296 34 3  0.1000 11.4636 26.1507 37.1778
297 34 3  0.1000 10.3676 26.1166 38.6684
298 35 2 -0.2000 17.0397 17.3710 31.9500
299 35 3  0.1000 17.9937 15.6862 32.9714
300 35 3  0.1000 16.5488 16.4750 33.7152
301 36 2 -0.2000 36.7093 42.8538 40.2708
302 36 3  0.1000 35.4091 42.4297 38.5273
303 36 3  0.1000 35.9455 44.0005 38.8587
304 37 2 -0.2000 31.4426  5.8854  3.9703
305 37 3  0.1000 32.9610  4.3269  4.4762
306 37 3  0.1000 33.4834  5.9490  4.7257
307 20 2 -0.2000 10.2417 26.4217 12.3140
308 20 3  0.1000  9.4277 25.1546 14.0543
309 20 3  0.1000 11.0704 25.5890 14.2065
310 21 2 -0.2000 39.9308 12.4893 15.2367
311 21 3  0.1000 39.1510 14.0127 13.8835
312 21 3  0.1000 37.9650 12.7450 14.4425
313 22 2 -0.2000 -3.0167 31.4534 16.4497
314 22 3  0.1000 -0.9163 30.6880 16.8436
315 22 3  0.1000 -1.1286 31.7433 15.5600
316 23 2 -0.2000 22.8964  8.6036 19.8753
317 23 3  0.1000 22.2754 10.7032 20.0977
318 23 3  0.1000 21.4377  9.9035 18.7716
319 24 2 -0.2000 16.5139 30.1428 11.2607
320 24 3  0.1000 15.5728 29.1250  9.5578
321 24 3  0.1000 15.6574 30.8161  9.5691
322 25 2 -0.2000 16.3382  2.0291 12.2740
323 25 3  0.1000 14.5095  2.6218 11.1862
324 25 3  0.1000 15.9102  2.1039 10.2524
325 26 2 -0.2000 15.9488 40.6313 20.5786
326 26 3  0.1000 16.4476 39.7031 22.6284
327 26 3  0.1000 17.5143 39.2576 21.3056
328 27 2 -0.2000 28.8696  1.8271 41.1210
329 27 3  0.1000 26.7405  2.4705 40.9022
330 27 3  0.1000 28.0177  3.7396 40.8090
331 28 2 -0.2000 27.7636 13.3275 20.3814
332 28 3  0.1000 29.0281 12.6764 18.7509
333 28 3  0.1000 28.2542 11.2806 19.6575
334 29 2 -0.2000 13.3928 21.2791  2.4737
335 29 3  0.1000 12.3748 23.0323  3.0821
336 29 3  0.1000 13.1222 22.2545  4.3680
337 30 2 -0.2000 17.9956 40.0857  7.9803
338 30 3  0.1000 18.6219 38.9661  6.2031
339 30 3  0.1000 19.7791 40.2045  6.6838
340 31 2 -0.2000 33.7376 36.2091 30.3970
341 31 3  0.1000 34.2454 38.2471 29.7628
342 31 3  0.1000 35.2009 37.7436 30.9981
343 32 2 -0.2000  6.4574 28.3370 20.2571
344 32 3  0.1000  5.9192 26.2177 20.5194
345 32 3  0.1000  4.7490 27.2842 19.9024
346 33 2 -0.2000  4.1471 13.9880 16.0363
347 33 3  0.1000  3.1241 14.9701 14.2791
348 33 3  0.1000  2.0691 14.5209 15.6012
349 34 2 -0.2000 12.2383 23.8722 38.3979
350 34 3  0.1000 12.1348 25.3332 40.2472
351 34 3  0.1000 13.2335 25.4534 39.0102
352 35 2 -0.2000 18.2822 18.2630 31.9936
353 35 3  0.1000 15.9807 17.8130 31.9454
354 35 3  0.1000 17.0721 16.9878 30.9421
355 36 2 -0.2000 37.5672 43.8871 40.9207
356 36 3  0.1000 36.9115 41.9252 40.6151
357 36 3  0.1000 35.6623 43.0233 40.7432
358 37 2 -0.2000 31.9700  5.6195  2.5881
359 37 3  0.1000 31.1509  6.9502  4.2054
360 37 3  0.1000 30.5867  5.3448  4.2268
361 20 2 -0.2000  8.8061 26.4485 11.7050
362 20 3  0.1000 10.9015 25.8245 11.6430
363 20 3  0.1000 10.6258 27.5002 12.3581
364 21 2 -0.2000 39.3612 11.0841 14.7977
365 21 3  0.1000 40.2232 12.6877 16.3292
366 21 3  0.1000 40.8143 12.7940 14.6587
367 22 2 -0.2000 -3.3706 30.0326 16.0643
368 22 3  0.1000 -3.2059 32.1911 15.5751
369 22 3  0.1000 -3.4840 31.8447 17.4034
370 23 2 -0.2000 24.3211  9.0347 19.5279
371 23 3  0.1000 22.6786  7.5933 19.5870
372 23 3  0.1000 23.0082  8.4830 21.0410
373 24 2 -0.2000 16.8056 28.8475 11.9511
374 24 3  0.1000 15.7159 30.7201 11.6385
375 24 3  0.1000 17.4786 30.8069 11.4362
376 25 2 -0.2000 17.3901  3.0878 11.7406
377 25 3  0.1000 16.7740  1.1894 12.6165
378 25 3  0.1000 15.8028  2.3590 13.2012
379 26 2 -0.2000 16.7729 40.7947 19.2840
380 26 3  0.1000 15.5009 41.6181 20.8735
381 26 3  0.1000 15.1371 39.7967 20.4879
382 27 2 -0.2000 29.4450  2.1821 42.4355
383 27 3  0.1000 29.6782  1.4745 40.4823
384 27 3  0.1000 28.3719  0.8582 41.3053
385 28 2 -0.2000 28.7219 13.0229 21.5763
386 28 3  0.1000 26.6439 13.3809 20.6327
387 28 3  0.1000 28.1034 14.3268 19.9988
388 29 2 -0.2000 12.3760 20.2863  3.0154
389 29 3  0.1000 14.4933 20.9396  2.4274
390 29 3  0.1000 13.1423 21.4027  1.3809
391 30 2 -0.2000 17.7759 41.4519  7.3122
392 30 3  0.1000 18.2150 40.0513  9.0916
393 30 3  0.1000 16.9568 39.5263  7.9943
394 31 2 -0.2000 34.7367 35.2548 31.3231
395 31 3  0.1000 33.0465 35.7206 29.7722
396 31 3  0.1000 33.0028 36.7521 31.1677
397 32 2 -0.2000  5.7848 29.6215 19.7168
398 32 3  0.1000  7.5543 28.2586 20.3231
399 32 3  0.1000  6.2152 28.3322 21.2415
400 33 2 -0.2000  3.3785 13.1799 17.1626
401 33 3  0.1000  4.9225 14.5543 16.5351
402 33 3  0.1000  4.5261 13.3159 15.2904
403 34 2 -0.2000 11.2181 23.8478 37.1539
404 34 3  0.1000 12.0154 23.0497 39.0248
405 34 3  0.1000 13.1846 23.6936 37.9930
406 35 2 -0.2000 19.2092 18.2397 33.2943
407 35 3  0.1000 18.1701 19.3515 31.6771
408 35 3  0.1000 18.9771 17.8317 31.1816
409 36 2 -0.2000 37.3776 43.5800 42.4046
410 36 3  0.1000 37.4032 44.9820 40.6673
411 36 3  0.1000 38.6339 43.7705 40.5908
412 37 2 -0.2000 32.7974  6.8404  2.2963
413 37 3  0.1000 31.2044  5.5637  1.8406
414 37 3  0.1000 32.6538  4.6695  2.4308
415 20 3  0.1000  8.1022 25.7112 12.1287
416 20 3  0.1000  9.0115 26.0166 10.7396
417 20 2 -0.2000  8.1153 27.7869 11.6215
418 21 3  0.1000 39.0778 11.1460 13.7303
419 21 3  0.1000 38.4485 10.7496 15.3070
420 21 2 -0.2000 40.2907  9.8449 14.9580
421 22 3  0.1000 -2.9469 29.6331 15.0735
422 22 3  0.1000 -4.4297 30.1267 15.9257
423 22 2 -0.2000 -3.0431 29.0649 17.2373
424 23 3  0.1000 24.9134  9.6295 20.3498
425 23 3  0.1000 24.1867  9.7242 18.7451
426 23 2 -0.2000 25.0457  7.9144 18.8792
427 24 3  0.1000 16.6244 28.1052 11.1929
428 24 3  0.1000 16.1428 28.6952 12.7225
429 24 2 -0.2000 18.2258 28.8590 12.5906
430 25 3  0.1000 16.8744  3.8057 11.0397
431 25 3  0.1000 18.0797  2.5348 11.0591
432 25 2 -0.2000 18.1869  3.9595 12.6870
433 26 3  0.1000 17.6969 40.2685 19.1994
434 26 3  0.1000 17.1414 41.7786 19.4013
435 26 2 -0.2000 16.2590 41.0179 17.8832
436 27 3  0.1000 28.9996  1.4988 43.1210
437 27 3  0.1000 29.1600  3.2418 42.6880
438 27 2 -0.2000 30.9110  2.2721 42.2981
439 28 3  0.1000 29.7156 13.2914 21.1262
440 28 3  0.1000 28.8089 11.9388 21.8270
441 28 2 -0.2000 28.3179 13.5775 22.9170
442 29 3  0.1000 11.4356 20.4435  2.6313
443 29 3  0.1000 12.3026 20.4260  4.1082
444 29 2 -0.2000 12.9671 18.8241  2.8364
445 30 3  0.1000 18.3662 42.2498  7.7723
446 30 3  0.1000 16.7570 41.6998  7.6130
447 30 2 -0.2000 17.5689 41.6382  5.8556
448 31 3  0.1000 34.6371 35.4128 32.3934
449 31 3  0.1000 35.7593 35.6272 31.0861
450 31 2 -0.2000 34.7964 33.7640 30.9808
451 32 3  0.1000  5.3019 30.0592 20.6060
452 32 3  0.1000  4.9755 29.4044 19.1391
453 32 2 -0.2000  6.8169 30.5244 19.1987
454 33 3  0.1000  3.0005 12.2172 16.7945
455 33 3  0.1000  2.5692 13.8139 17.4085
456 33 2 -0.2000  4.2365 13.2148 18.4223
457 34 3  0.1000 11.3936 24.4539 36.2231
458 34 3  0.1000 10.2864 24.3329 37.4678
459 34 2 -0.2000 10.6777 22.4584 36.8812
460 35 3  0.1000 20.3619 18.7957 33.3367
461 35 3  0.1000 19.4215 17.1933 33.5800
462 35 2 -0.2000 18.3637 18.9119 34.3654
463 36 3  0.1000 36.5953 42.8795 42.5399
464 36 3  0.1000 37.0492 44.4823 42.9622
465 36 2 -0.2000 38.6261 43.0243 42.9968
466 37 3  0.1000 33.7481  7.0794  2.8067
467 37 3  0.1000 32.1333  7.6821  2.5119
468 37 2 -0.2000 32.9590  7.0080  0.8364
469 20 2 -0.2000  6.8878 27.5662 10.9245
470 20 3  0.1000  8.7115 28.4852 11.0468
471 20 3  0.1000  7.9412 28.1238 12.7180
472 21 2 -0.2000 41.2301  9.7226 16.2117
473 21 3  0.1000 40.7049  9.5407 13.9290
474 21 3  0.1000 39.5197  9.0754 15.1949
475 22 2 -0.2000 -3.1075 29.4500 18.7187
476 22 3  0.1000 -2.0065 28.6760 16.9678
477 22 3  0.1000 -3.8473 28.2330 17.1820
478 23 2 -0.2000 26.5510  8.1122 19.0693
479 23 3  0.1000 24.8634  7.8831 17.8281
480 23 3  0.1000 24.8304  6.9026 19.2474
481 24 2 -0.2000 18.4038 27.3725 13.1592
482 24 3  0.1000 18.4427 29.6928 13.2629
483 24 3  0.1000 19.0007 29.0469 11.7840
484 25 2 -0.2000 19.2089  4.5999 11.8353
485 25 3  0.1000 18.5986  3.3804 13.4724
486 25 3  0.1000 17.4808  4.7341 13.1135
487 26 2 -0.2000 15.5208 42.2037 17.5096
488 26 3  0.1000 15.9156 40.0121 17.6579
489 26 3  0.1000 17.1013 41.0835 17.3099
490 27 2 -0.2000 31.3108  0.8089 42.7263
491 27 3  0.1000 31.4607  3.0601 42.9377
492 27 3  0.1000 31.1938  2.4079 41.2454
493 28 2 -0.2000 27.2368 12.6361 23.4038
494 28 3  0.1000 27.9352 14.5840 23.0249
495 28 3  0.1000 29.0994 13.4578 23.6220
496 29 2 -0.2000 12.8342 18.1288  4.0553
497 29 3  0.1000 13.9629 18.7466  2.3124
498 29 3  0.1000 12.2205 18.2519  2.2876
499 30 2 -0.2000 16.3065 40.8538  5.5450
500 30 3  0.1000 18.2349 41.1843  5.2018
501 30 3  0.1000 17.5011 42.6670  5.5284
502 31 2 -0.2000 35.8135 33.1727 31.8286
503 31 3  0.1000 34.8574 33.5183 29.8816
504 31 3  0.1000 33.8651 33.2133 31.3269
505 32 2 -0.2000  6.2110 31.9920 18.8872
506 32 3  0.1000  7.3351 30.0478 18.2688
507 32 3  0.1000  7.5869 30.6854 19.9149
508 33 2 -0.2000  4.5648 11.7724 18.7867
509 33 3  0.1000  3.7030 13.8237 19.1961
510 33 3  0.1000  5.1353 13.6863 18.2275
511 34 2 -0.2000 11.7059 21.5597 36.2556
512 34 3  0.1000  9.8147 22.6131 36.1852
513 34 3  0.1000 10.3383 22.0436 37.8506
514 35 2 -0.2000 19.0203 20.2106 34.7146
515 35 3  0.1000 17.9636 18.3588 35.2194
516 35 3  0.1000 17.4290 19.0775 33.8611
517 36 2 -0.2000 39.1180 41.6786 42.4127
518 36 3  0.1000 38.4392 43.1922 44.1167
519 36 3  0.1000 39.5061 43.6867 42.6973
520 37 2 -0.2000 33.8087  8.1854  0.6874
521 37 3  0.1000 32.0064  6.9960  0.3036
522 37 3  0.1000 33.4624  6.1000  0.4811
523 20 2 -0.2000  5.8032 26.9868 11.7780
524 20 3  0.1000  6.8906 27.1103  9.8715
525 20 3  0.1000  6.4327 28.5722 10.6576
526 21 2 -0.2000 40.6936  9.6730 17.5991
527 21 3  0.1000 42.1572 10.3711 16.1742
528 21 3  0.1000 41.7658  8.7928 16.0894
529 22 2 -0.2000 -3.8971 28.5193 19.4722
530 22 3  0.1000 -3.3668 30.4896 18.6937
531 22 3  0.1000 -2.1351 29.3367 19.1327
532 23 2 -0.2000 27.2011  7.8627 17.6653
533 23 3  0.1000 27.1701  7.7530 19.8671
534 23 3  0.1000 26.6154  9.2406 19.2251
535 24 2 -0.2000 19.7891 27.0359 12.7022
536 24 3  0.1000 17.5883 26.7844 12.7564
537 24 3  0.1000 18.3301 27.2991 14.2379
538 25 2 -0.2000 20.0584  5.5359 12.6955
539 25 3  0.1000 18.7542  5.1276 10.9314
540 25 3  0.1000 19.9419  3.8150 11.3740
541 26 2 -0.2000 14.0927 41.8832 17.6038
542 26 3  0.1000 15.5862 42.5786 16.4535
543 26 3  0.1000 15.8016 43.0199 18.2452
544 27 2 -0.2000 32.7101  0.3817 42.7406
545 27 3  0.1000 30.8059  0.1162 42.1760
546 27 3  0.1000 30.9724  0.5444 43.7559
547 28 2 -0.2000 27.8074 11.2859 23.9296
548 28 3  0.1000 26.3371 12.5348 22.7719
549 28 3  0.1000 26.8765 13.1413 24.2812
550 29 2 -0.2000 13.9958 18.2239  4.9449
551 29 3  0.1000 12.4033 17.1553  3.7127
552 29 3  0.1000 12.0033 18.5171  4.6615
553 30 2 -0.2000 15.4003 41.6951  4.7926
554 30 3  0.1000 15.9502 40.4195  6.4938
555 30 3  0.1000 16.4936 40.0595  4.8653
556 31 2 -0.2000 35.6226 31.7106 31.9972
557 31 3  0.1000 35.9880 33.7815 32.7470
558 31 3  0.1000 36.7643 33.2180 31.2879
559 32 2 -0.2000  6.4610 32.1267 17.4030
560 32 3  0.1000  6.6069 32.7936 19.5066
561 32 3  0.1000  5.1215 31.9583 19.0041
562 33 2 -0.2000  5.8432 11.2864 18.1191
563 33 3  0.1000  3.6795 11.0862 18.6619
564 33 3  0.1000  4.9398 11.8356 19.8230
565 34 2 -0.2000 12.4363 21.8976 34.9930
566 34 3  0.1000 11.4524 20.5306 36.4802
567 34 3  0.1000 12.6298 21.6621 36.9964
568 35 2 -0.2000 19.6703 19.9413 36.1305
569 35 3  0.1000 18.3106 21.0176 34.6485
570 35 3  0.1000 19.8409 20.6169 33.9614
571 36 2 -0.2000 40.4935 41.4857 41.9114
572 36 3  0.1000 38.3041 41.0575 41.8707
573 36 3  0.1000 39.2837 41.0358 43.3830
574 37 2 -0.2000 33.8820  9.0005 -0.6945
575 37 3  0.1000 34.8176  7.9316  1.1164
576 37 3  0.1000 33.4973  8.9519  1.3468
577 20 2 -0.2000  5.2769 25.7612 11.1538
578 20 3  0.1000  5.0846 27.8337 12.0161
579 20 3  0.1000  6.1634 26.7015 12.7534
580 21 2 -0.2000 40.9866 10.8048 18.5909
581 21 3  0.1000 40.9607  8.7218 18.0485
582 21 3  0.1000 39.6020  9.6437 17.4792
583 22 2 -0.2000 -3.2144 27.1043 19.4169
584 22 3  0.1000 -4.9712 28.4717 19.0288
585 22 3  0.1000 -4.0137 28.8955 20.4715
586 23 2 -0.2000 28.8674  7.7072 17.8044
587 23 3  0.1000 26.7972  8.5808 16.8829
588 23 3  0.1000 26.9084  6.8549 17.2911
589 24 2 -0.2000 20.0942 25.8439 13.5082
590 24 3  0.1000 20.5372 27.8070 12.6110
591 24 3  0.1000 19.7061 26.6746 11.6458
592 25 2 -0.2000 20.8005  4.6417 13.8215
593 25 3  0.1000 19.4275  6.3770 12.9997
594 25 3  0.1000 20.8338  5.9104 12.0441
595 26 2 -0.2000 13.6907 41.9151 16.1662
596 26 3  0.1000 13.5020 42.2962 18.4275
597 26 3  0.1000 14.1132 40.7349 17.8745
598 27 2 -0.2000 33.8331  1.2624 43.2759
599 27 3  0.1000 33.0270  0.1055 41.7380
600 27 3  0.1000 32.8041 -0.5418 43.3770
601 28 2 -0.2000 27.6584 10.8641 25.4338
602 28 3  0.1000 28.9127 11.2467 23.7349
603 28 3  0.1000 27.3754 10.5232 23.2214
604 29 2 -0.2000 14.5691 16.8340  5.1243
605 29 3  0.1000 13.8142 18.7049  5.9017
606 29 3  0.1000 14.6898 18.9454  4.3987
607 30 2 -0.2000 14.0122 41.0207  4.8296
608 30 3  0.1000 15.7784 41.8394  3.7292
609 30 3  0.1000 15.4367 42.7293  5.2738
610 31 2 -0.2000 36.1844 31.2598 33.3295
611 31 3  0.1000 36.0115 31.0611 31.2222
612 31 3  0.1000 34.4865 31.4778 32.0001
613 32 2 -0.2000  5.6196 33.2460 16.9480
614 32 3  0.1000  6.2606 31.2353 16.7599
615 32 3  0.1000  7.5645 32.2923 17.2041
616 33 2 -0.2000  6.9833 11.0846 19.0612
617 33 3  0.1000  6.0979 11.7615 17.1681
618 33 3  0.1000  5.4851 10.2488 17.7629
619 34 2 -0.2000 12.0692 20.9606 33.8352
620 34 3  0.1000 13.5514 21.9974 35.2353
621 34 3  0.1000 12.2338 22.9047 34.7509
622 35 2 -0.2000 20.0020 21.2514 36.7429
623 35 3  0.1000 20.5104 19.2320 36.0640
624 35 3  0.1000 18.9037 19.3169 36.6549
625 36 2 -0.2000 41.4765 41.6766 43.0988
626 36 3  0.1000 40.7402 42.0834 40.9962
627 36 3  0.1000 40.5571 40.3774 41.6091
628 37 2 -0.2000 35.2850  8.6282 -1.2444
629 37 3  0.1000 33.6918 10.1165 -0.5867
630 37 3  0.1000 33.1293  8.6674 -1.4301
631 20 2 -0.2000  4.3929 26.1990  9.9427
632 20 3  0.1000  4.8322 25.2893 12.0630
633 20 3  0.1000  6.1642 25.2193 10.7244
634 21 2 -0.2000 39.7794 10.8807 19.4446
635 21 3  0.1000 41.0623 11.7461 18.0500
636 21 3  0.1000 41.8729 10.6396 19.1658
637 22 2 -0.2000 -2.0497 27.2176 20.3387
638 22 3  0.1000 -2.9574 26.8872 18.3397
639 22 3  0.1000 -3.8821 26.3907 19.8353
640 23 2 -0.2000 29.5090  6.8639 16.7445
641 23 3  0.1000 29.2375  7.5156 18.7759
642 23 3  0.1000 29.2656  8.7040 17.5925
643 24 2 -0.2000 21.4103 25.0627 13.3169
644 24 3  0.1000 19.1888 25.2848 13.4555
645 24 3  0.1000 20.0247 26.1542 14.6038
646 25 2 -0.2000 22.1517  5.3126 14.3280
647 25 3  0.1000 21.0535  3.6646 13.3920
648 25 3  0.1000 20.2292  4.4157 14.7273
649 26 2 -0.2000 12.2294 41.4736 16.0051
650 26 3  0.1000 14.4137 41.3762 15.4749
651 26 3  0.1000 13.8230 42.8919 15.7271
652 27 2 -0.2000 35.1518  0.5494 43.2807
653 27 3  0.1000 33.5958  1.9454 44.1063
654 27 3  0.1000 33.9926  2.0219 42.5088
655 28 2 -0.2000 29.0552 10.7964 26.0752
656 28 3  0.1000 26.8175 10.1547 25.6309
657 28 3  0.1000 27.3111 11.7352 25.9083
658 29 2 -0.2000 15.3424 16.3533  3.8630
659 29 3  0.1000 13.7575 16.2676  5.6260
660 29 3  0.1000 15.4789 16.9544  5.9379
661 30 2 -0.2000 14.0965 39.9173  3.7711
662 30 3  0.1000 13.1297 41.5586  4.5063
663 30 3  0.1000 13.7641 40.6510  5.8520
664 31 2 -0.2000 37.2163 30.1823 33.4818
665 31 3  0.1000 35.3732 31.0829 33.9296
666 31 3  0.1000 36.5888 32.1874 33.7299
667 32 2 -0.2000  6.2675 34.5642 17.1512
668 32 3  0.1000  4.6164 33.3141 17.4489
669 32 3  0.1000  5.3290 33.1218 15.9347
670 33 2 -0.2000  8.2025 11.6920 18.5126
671 33 3  0.1000  7.1233 10.0088 19.1405
672 33 3  0.1000  6.7757 11.5039 20.0621
673 34 2 -0.2000 12.5522 21.6105 32.4748
674 34 3  0.1000 11.2020 20.4051 33.9147
675 34 3  0.1000 12.7398 20.1474 33.9554
676 35 2 -0.2000 21.4814 21.7876 36.7408
677 35 3  0.1000 19.3744 21.5639 37.6189
678 35 3  0.1000 19.5598 21.9346 36.0165
679 36 2 -0.2000 42.8730 41.7157 42.4669
680 36 3  0.1000 41.3424 41.1377 44.0819
681 36 3  0.1000 41.2416 42.7041 43.3868
682 37 2 -0.2000 35.1168  7.6183 -2.3391
683 37 3  0.1000 35.9465  8.1273 -0.5430
684 37 3  0.1000 35.8572  9.4535 -1.7864
685 20 2 -0.2000  4.5340 25.4875  8.5675
686 20 3  0.1000  4.2810 27.3390  9.7054
687 20 3  0.1000  3.4104 25.9438 10.2427
688 21 2 -0.2000 39.6276 10.1255 20.7575
689 21 3  0.1000 38.8049 10.8536 18.8535
690 21 3  0.1000 39.8019 12.0244 19.7821
691 22 2 -0.2000 -2.3326 27.5479 21.8528
692 22 3  0.1000 -1.2601 27.7287 19.8147
693 22 3  0.1000 -1.6066 26.2307 20.4210
694 23 2 -0.2000 31.0322  6.8461 16.6689
695 23 3  0.1000 29.2207  7.2048 15.8101
696 23 3  0.1000 29.1040  5.7887 16.9641
697 24 2 -0.2000 22.6765 25.9634 12.9376
698 24 3  0.1000 21.3634 24.1458 12.7433
699 24 3  0.1000 21.5877 24.6462 14.3223
700 25 2 -0.2000 21.8214  6.6141 15.0999
701 25 3  0.1000 22.9421  5.3383 13.5654
702 25 3  0.1000 22.6011  4.6421 15.0434
703 26 2 -0.2000 11.6260 41.8301 14.6051
704 26 3  0.1000 11.6256 41.5391 16.8963
705 26 3  0.1000 12.4329 40.4199 16.0210
706 27 2 -0.2000 35.5397 -0.1318 44.6757
707 27 3  0.1000 35.9620  1.0507 42.7254
708 27 3  0.1000 34.9826 -0.2802 42.6405
709 28 2 -0.2000 29.1999 11.1009 27.6059
710 28 3  0.1000 29.8631 11.1806 25.3742
711 28 3  0.1000 29.2418  9.7053 26.0291
712 29 2 -0.2000 16.5639 17.1893  3.7662
713 29 3  0.1000 14.5268 16.3168  3.0803