LAMMPS DATA FILE

4032 atoms 
 4014 bonds 
 7992 angles 
 11826 dihedrals 
 0 impropers 

 3 atom types 
 4 bond types 
 7 angle types 
 8 dihedral types 
 0 improper types 

0.00000  40.0000  xlo xhi
0.00000  40.0000  ylo yhi
0.00000  40.0000  zlo zhi

Masses

1  12.01115 
2  12.01115 
3  1.00797 

Pair Coeffs

1  0.038999995200   3.875409
2  0.038999995200   3.875409
3  0.038000001100   2.449971

Bond Coeffs

1 322.715800 1.526000 
2 340.617500 1.105000 
3 322.715800 1.526000 
4 340.617500 1.105000 

Angle Coeffs

1 46.600000 110.500000 
2 46.600000 110.500000 
3 44.400000 110.000000 
4 39.500000 106.400000 
5 44.400000 110.000000 
6 44.400000 110.000000 
7 39.500000 106.400000 

Dihedral Coeffs

1 0.158100 1 3 
2 0.158100 1 3 
3 0.158100 1 3 
4 0.158100 1 3 
5 0.158100 1 3 
6 0.158100 1 3 
7 0.158100 1 3 
8 0.158100 1 3 

Atoms

1 20 1 -0.3000 18.6686 29.3060 18.6973
2 20 2 -0.2000 17.8644 30.3718 17.8970
3 20 3  0.1000 19.1811 28.6445 18.0498
4 20 3  0.1000 18.0987 28.9907 19.6270
5 20 3  0.1000 19.4732 29.8761 19.1590
6 20 2 -0.2000 17.9017 31.6647 18.7876
7 20 3  0.1000 16.8692 29.9962 17.6328
8 20 3  0.1000 18.4104 30.4623 16.8139
9 20 2 -0.2000 16.4739 32.1925 19.0717
10 20 3  0.1000 18.6162 32.3868 18.4800
11 20 3  0.1000 18.2689 31.3170 19.7255
12 21 1 -0.3000 39.1379 15.6069 32.8042
13 21 2 -0.2000 40.3842 14.9918 32.2051
14 21 3  0.1000 39.2195 15.2973 33.7605
15 21 3  0.1000 38.1055 15.3840 32.3163
16 21 3  0.1000 39.1804 16.7724 32.8321
17 21 2 -0.2000 41.5461 15.9856 32.1900
18 21 3  0.1000 40.2738 14.3736 31.3050
19 21 3  0.1000 40.7484 14.3046 33.0000
20 21 2 -0.2000 42.8625 15.5571 31.5855
21 21 3  0.1000 41.4838 16.5260 33.1986
22 21 3  0.1000 41.1974 16.8072 31.4449
23 22 1 -0.3000 33.4790 32.7553 10.5255
24 22 2 -0.2000 32.2623 32.1876  9.7226
25 22 3  0.1000 33.1604 33.2055 11.4734
26 22 3  0.1000 34.0939 33.3619  9.8130
27 22 3  0.1000 34.0305 31.8984 10.9213
28 22 2 -0.2000 31.9344 30.7235 10.0882
29 22 3  0.1000 32.3864 32.2672  8.6600
30 22 3  0.1000 31.4706 32.8371  9.9707
31 22 2 -0.2000 31.1458 30.1641  8.9704
32 22 3  0.1000 31.3948 30.7424 11.0086
33 22 3  0.1000 32.8178 30.2548 10.2002
34 23 1 -0.3000 14.4062 27.9961 24.2662
35 23 2 -0.2000 14.7287 29.3574 23.7015
36 23 3  0.1000 14.3555 27.9048 25.3381
37 23 3  0.1000 14.7453 27.0235 23.8295
38 23 3  0.1000 13.3191 27.8560 23.9981
39 23 2 -0.2000 14.0309 29.6432 22.4108
40 23 3  0.1000 15.7338 29.7250 23.6772
41 23 3  0.1000 14.1675 30.0384 24.4379
42 23 2 -0.2000 14.6078 28.4296 21.5055
43 23 3  0.1000 14.2388 30.6254 22.0027
44 23 3  0.1000 12.9652 29.6014 22.4940
45 24 1 -0.3000  4.4630 16.9058 22.2527
46 24 2 -0.2000  4.0595 18.2989 21.7352
47 24 3  0.1000  3.6216 16.4782 22.7010
48 24 3  0.1000  5.2173 16.8543 23.0201
49 24 3  0.1000  4.8116 16.2738 21.4488
50 24 2 -0.2000  3.5125 19.2017 22.7524
51 24 3  0.1000  3.4572 18.2782 20.8471
52 24 3  0.1000  5.0185 18.8637 21.4259
53 24 2 -0.2000  2.0857 19.7488 22.7498
54 24 3  0.1000  4.2400 19.9774 22.9958
55 24 3  0.1000  3.6026 18.6257 23.7157
56 25 1 -0.3000 28.0567 12.7047 21.8325
57 25 2 -0.2000 27.1422 12.6904 22.9991
58 25 3  0.1000 27.8870 13.7256 21.4735
59 25 3  0.1000 27.8246 11.9889 20.9503
60 25 3  0.1000 29.0459 12.5950 22.1812
61 25 2 -0.2000 26.5240 13.9110 23.5541
62 25 3  0.1000 27.3832 11.8842 23.8074
63 25 3  0.1000 26.2581 12.1422 22.5956
64 25 2 -0.2000 25.5934 14.8458 22.7184
65 25 3  0.1000 27.2898 14.5235 24.1423
66 25 3  0.1000 25.8953 13.5697 24.3302
67 26 1 -0.3000 18.7280 32.1438 33.2111
68 26 2 -0.2000 18.6485 32.2900 34.7678
69 26 3  0.1000 18.2772 32.9356 32.7290
70 26 3  0.1000 18.2780 31.1700 32.8881
71 26 3  0.1000 19.7967 32.1326 32.9551
72 26 2 -0.2000 19.9561 32.1314 35.6027
73 26 3  0.1000 17.7859 31.7425 35.3327
74 26 3  0.1000 18.3498 33.3151 35.0380
75 26 2 -0.2000 20.6909 33.5136 35.8736
76 26 3  0.1000 20.5317 31.1678 35.5612
77 26 3  0.1000 19.5540 31.9749 36.6148
78 27 1 -0.3000 12.5305 30.6699 39.8747
79 27 2 -0.2000 11.1926 31.3306 40.3483
80 27 3  0.1000 12.8713 31.3187 39.0971
81 27 3  0.1000 12.5136 29.6084 39.3769
82 27 3  0.1000 13.3060 30.6045 40.6594
83 27 2 -0.2000 10.1553 30.3561 40.6552
84 27 3  0.1000 10.8461 32.2616 39.9408
85 27 3  0.1000 11.5605 31.7458 41.3255
86 27 2 -0.2000  9.3616 29.6387 39.4641
87 27 3  0.1000  9.4540 30.7536 41.4005
88 27 3  0.1000 10.6554 29.5976 41.1344
89 28 1 -0.3000 32.6579  6.5101 33.4410
90 28 2 -0.2000 33.3415  7.2235 32.2662
91 28 3  0.1000 33.1148  6.9963 34.3836
92 28 3  0.1000 32.6105  5.4768 33.3649
93 28 3  0.1000 31.6715  6.8979 33.3450
94 28 2 -0.2000 34.8825  7.1542 32.5974
95 28 3  0.1000 32.7931  8.1475 31.8899
96 28 3  0.1000 33.1889  6.6293 31.3784
97 28 2 -0.2000 35.6670  5.8466 32.9171
98 28 3  0.1000 35.0453  7.9647 33.4003
99 28 3  0.1000 35.2831  7.5826 31.6574
100 29 1 -0.3000  7.7725 36.2405 23.1875
101 29 2 -0.2000  8.8233 37.3394 23.1851
102 29 3  0.1000  6.9420 36.5538 23.8055
103 29 3  0.1000  8.1527 35.1733 23.2561
104 29 3  0.1000  7.3538 36.3658 22.2021
105 29 2 -0.2000 10.2849 36.9935 23.0987
106 29 3  0.1000  8.6322 38.1778 23.9108
107 29 3  0.1000  8.7447 37.8673 22.1656
108 29 2 -0.2000 11.0299 36.3318 24.3272
109 29 3  0.1000 10.8024 37.8324 22.6652
110 29 3  0.1000 10.3661 36.2523 22.2176
111 30 1 -0.3000 31.2598 23.5719 38.9616
112 30 2 -0.2000 31.4834 23.1829 37.5176
113 30 3  0.1000 32.1014 23.7548 39.5831
114 30 3  0.1000 30.3381 23.0767 39.3970
115 30 3  0.1000 30.8712 24.5800 38.8838
116 30 2 -0.2000 32.2574 21.8767 37.1679
117 30 3  0.1000 31.6776 24.0108 36.8662
118 30 3  0.1000 30.5009 22.8841 37.2528
119 30 2 -0.2000 33.3706 22.1114 36.2040
120 30 3  0.1000 31.5285 21.2073 36.7734
121 30 3  0.1000 32.6009 21.4251 38.0594
122 31 1 -0.3000 19.4407 37.2596 28.5024
123 31 2 -0.2000 20.1238 36.1824 29.3145
124 31 3  0.1000 19.6304 38.2378 28.9506
125 31 3  0.1000 18.4211 37.0788 28.4154
126 31 3  0.1000 19.9243 37.4197 27.5528
127 31 2 -0.2000 19.5871 34.8022 29.0995
128 31 3  0.1000 20.3283 36.5121 30.2926
129 31 3  0.1000 21.1660 36.1426 28.9083
130 31 2 -0.2000 18.4952 34.3321 29.9975
131 31 3  0.1000 20.4590 34.0521 29.1319
132 31 3  0.1000 19.1826 34.8425 28.0881
133 32 1 -0.3000 38.2193  0.0598 25.2742
134 32 2 -0.2000 39.3776 -0.8629 25.6610
135 32 3  0.1000 38.6587  1.0118 25.0629
136 32 3  0.1000 37.6176  0.1128 26.2116
137 32 3  0.1000 37.5575 -0.2080 24.3806
138 32 2 -0.2000 38.9354 -1.7840 26.7380
139 32 3  0.1000 40.4118 -0.4685 25.8913
140 32 3  0.1000 39.6560 -1.6631 24.8588
141 32 2 -0.2000 40.0877 -2.5811 27.4227
142 32 3  0.1000 38.1737 -2.4163 26.4652
143 32 3  0.1000 38.4104 -1.3095 27.5359
144 33 1 -0.3000 28.8853 34.0057 26.4250
145 33 2 -0.2000 28.4554 32.5794 26.6903
146 33 3  0.1000 29.6999 34.2647 27.2141
147 33 3  0.1000 28.1017 34.8078 26.3222
148 33 3  0.1000 29.3937 33.9112 25.4544
149 33 2 -0.2000 27.5640 32.5289 28.0062
150 33 3  0.1000 29.2343 31.7814 26.4834
151 33 3  0.1000 27.6329 32.3974 25.8512
152 33 2 -0.2000 26.3828 31.5705 28.0406
153 33 3  0.1000 27.3840 33.5225 28.4367
154 33 3  0.1000 28.1913 32.0632 28.7672
155 34 1 -0.3000 11.8366 26.2421 30.0137
156 34 2 -0.2000 13.0261 25.4540 29.5403
157 34 3  0.1000 11.9545 26.5522 31.0332
158 34 3  0.1000 10.7972 25.7420 30.0423
159 34 3  0.1000 11.8555 27.1222 29.3324
160 34 2 -0.2000 13.7580 24.8610 30.8116
161 34 3  0.1000 13.6780 25.9187 28.8245
162 34 3  0.1000 12.5639 24.5808 29.0155
163 34 2 -0.2000 15.0087 24.0973 30.4396
164 34 3  0.1000 13.1803 24.2429 31.4907
165 34 3  0.1000 13.9937 25.7142 31.4293
166 35 1 -0.3000 13.0485  3.6432 37.3165
167 35 2 -0.2000 14.4225  4.3174 37.0321
168 35 3  0.1000 12.4231  4.2721 37.9870
169 35 3  0.1000 13.0860  2.6121 37.4018
170 35 3  0.1000 12.4215  3.6134 36.4714
171 35 2 -0.2000 14.5299  5.7618 37.1241
172 35 3  0.1000 14.9243  3.7978 36.2402
173 35 3  0.1000 15.0397  4.0373 37.8996
174 35 2 -0.2000 14.8378  6.1861 35.6407
175 35 3  0.1000 15.2926  6.0904 37.8783
176 35 3  0.1000 13.5479  6.1367 37.5080
177 36 1 -0.3000 20.4175 14.2590 13.9474
178 36 2 -0.2000 19.9130 12.8003 13.6303
179 36 3  0.1000 19.6620 14.9045 14.4335
180 36 3  0.1000 20.8544 14.7783 13.0112
181 36 3  0.1000 21.1504 14.3047 14.7646
182 36 2 -0.2000 20.7459 12.0620 12.6541
183 36 3  0.1000 18.8019 12.6163 13.4355
184 36 3  0.1000 19.9811 12.3535 14.6875
185 36 2 -0.2000 20.7684 12.7580 11.3918
186 36 3  0.1000 20.5351 10.9508 12.5576
187 36 3  0.1000 21.7538 12.0040 13.0237
188 37 1 -0.3000  3.6443 19.3132  5.6008
189 37 2 -0.2000  2.8387 19.4725  6.7909
190 37 3  0.1000  3.9057 18.3042  5.6387
191 37 3  0.1000  4.5865 19.8811  5.4732
192 37 3  0.1000  2.9932 19.5010  4.6318
193 37 2 -0.2000  1.6513 18.4769  6.9495
194 37 3  0.1000  2.5579 20.6173  6.8642
195 37 3  0.1000  3.5113 19.3501  7.6695
196 37 2 -0.2000  1.8212 17.3146  7.8831
197 37 3  0.1000  1.2492 18.1598  5.9927
198 37 3  0.1000  0.8178 19.0972  7.4204
199 20 2 -0.2000 16.0919 33.2496 18.0468
200 20 3  0.1000 16.3276 32.5553 20.0720
201 20 3  0.1000 15.7198 31.3722 18.9865
202 21 2 -0.2000 42.4486 15.3319 30.0634
203 21 3  0.1000 43.3779 14.7699 32.1647
204 21 3  0.1000 43.5092 16.4066 31.6885
205 22 2 -0.2000 30.7297 28.7668  9.2584
206 22 3  0.1000 31.7821 30.3822  8.0158
207 22 3  0.1000 30.1810 30.7102  8.9186
208 23 2 -0.2000 13.6282 28.1062 20.4017
209 23 3  0.1000 14.9317 27.6194 22.0536
210 23 3  0.1000 15.5508 28.7739 21.0729
211 24 2 -0.2000  1.0856 19.2787 21.6457
212 24 3  0.1000  2.1279 20.8032 22.8293
213 24 3  0.1000  1.5411 19.4669 23.7114
214 25 2 -0.2000 25.5927 16.1781 23.5195
215 25 3  0.1000 24.5811 14.2914 22.3882
216 25 3  0.1000 26.1626 15.1085 21.8005
217 26 2 -0.2000 21.6529 33.4164 37.0691
218 26 3  0.1000 19.9977 34.2804 36.2010
219 26 3  0.1000 21.1944 33.8469 34.9935
220 27 2 -0.2000  7.8176 29.9535 39.4107
221 27 3  0.1000  9.6648 28.5820 39.5009
222 27 3  0.1000  9.8638 30.0209 38.4972
223 28 2 -0.2000 36.7368  5.4344 31.8326
224 28 3  0.1000 35.2356  4.9351 33.2108
225 28 3  0.1000 36.1706  6.1232 33.8667
226 29 2 -0.2000 10.7351 37.1073 25.5712
227 29 3  0.1000 12.1301 36.2218 24.2278
228 29 3  0.1000 10.6137 35.3469 24.6024
229 30 2 -0.2000 32.9326 22.6516 34.9094
230 30 3  0.1000 34.2377 21.3939 36.1712
231 30 3  0.1000 33.8200 22.9022 36.6459
232 31 2 -0.2000 17.1826 34.4262 29.3009
233 31 3  0.1000 18.5212 34.6567 31.0685
234 31 3  0.1000 18.7881 33.2480 30.0883
235 32 2 -0.2000 41.5219 -2.3787 26.8715
236 32 3  0.1000 39.9253 -3.6085 27.6968
237 32 3  0.1000 40.0619 -2.1742 28.4423
238 33 2 -0.2000 26.6993 30.2018 28.7634
239 33 3  0.1000 25.8868 31.4506 27.0401
240 33 3  0.1000 25.5915 32.0518 28.5812
241 34 2 -0.2000 14.6331 22.5404 30.3504
242 34 3  0.1000 15.7233 24.1289 31.2992
243 34 3  0.1000 15.4468 24.4638 29.4676
244 35 2 -0.2000 14.7870  7.6908 35.5754
245 35 3  0.1000 14.1190  5.7226 34.9185
246 35 3  0.1000 15.9290  5.8137 35.3549
247 36 2 -0.2000 20.3687 12.1496 10.0554
248 36 3  0.1000 21.7620 13.2300 11.3513
249 36 3  0.1000 20.0663 13.5695 11.6284
250 37 2 -0.2000  1.5402 15.8834  7.3085
251 37 3  0.1000  1.5727 17.4955  8.9572
252 37 3  0.1000  2.9336 17.3069  7.9219
253 20 2 -0.2000 15.8409 34.6068 18.6327
254 20 3  0.1000 15.2522 32.8458 17.5080
255 20 3  0.1000 16.9422 33.4005 17.4349
256 21 2 -0.2000 43.7276 15.4025 29.2119
257 21 3  0.1000 41.5817 16.0066 29.6603
258 21 3  0.1000 41.9817 14.4030 30.0252
259 22 2 -0.2000 30.8918 28.0525  7.9873
260 22 3  0.1000 29.6691 28.6928  9.5210
261 22 3  0.1000 31.2771 28.3907 10.0836
262 23 2 -0.2000 13.1479 29.3942 19.7606
263 23 3  0.1000 12.7786 27.4211 20.7339
264 23 3  0.1000 14.1912 27.5271 19.6625
265 24 2 -0.2000  0.9312 20.3943 20.6255
266 24 3  0.1000  0.0988 19.0183 22.1263
267 24 3  0.1000  1.4311 18.4603 21.1311
268 25 2 -0.2000 24.1623 16.3527 23.1854
269 25 3  0.1000 26.2824 16.9832 23.1804
270 25 3  0.1000 25.7907 15.9261 24.6535
271 26 2 -0.2000 22.4970 34.5789 37.5025
272 26 3  0.1000 22.3933 32.4951 37.0783
273 26 3  0.1000 21.0785 33.1456 37.9446
274 27 2 -0.2000  7.1102 29.3548 38.2637
275 27 3  0.1000  7.6432 30.9195 39.5696
276 27 3  0.1000  7.2787 29.4704 40.3366
277 28 2 -0.2000 38.1809  6.0428 32.2286
278 28 3  0.1000 36.5118  5.3344 30.7626
279 28 3  0.1000 36.8190  4.3359 32.0075
280 29 2 -0.2000 11.9205 37.4717 26.4540
281 29 3  0.1000  9.9295 36.6432 26.1281
282 29 3  0.1000 10.2688 38.0714 25.1789
283 30 2 -0.2000 33.8850 22.0315 33.8232
284 30 3  0.1000 32.9686 23.7105 34.8412
285 30 3  0.1000 31.8526 22.3589 34.7390
286 31 2 -0.2000 16.4442 33.2642 28.6590
287 31 3  0.1000 17.2808 35.1962 28.5636
288 31 3  0.1000 16.5314 34.8604 30.0530
289 32 2 -0.2000 42.5494 -2.0004 27.9513
290 32 3  0.1000 41.7303 -1.7135 26.0585
291 32 3  0.1000 41.7804 -3.4069 26.5026
292 33 2 -0.2000 27.7141 30.1113 29.9789
293 33 3  0.1000 26.7567 29.3945 28.0527
294 33 3  0.1000 25.6560 29.9517 29.1844
295 34 2 -0.2000 16.1085 22.0845 30.2673
296 34 3  0.1000 14.1012 22.2446 29.4621
297 34 3  0.1000 14.3023 22.1251 31.3478
298 35 2 -0.2000 13.7558  8.4507 36.3311
299 35 3  0.1000 14.7396  7.9838 34.4890
300 35 3  0.1000 15.8016  8.1093 35.8391
301 36 2 -0.2000 18.9093 12.2430  9.5880
302 36 3  0.1000 20.8599 11.1958  9.9099
303 36 3  0.1000 21.0348 12.7370  9.3398
304 37 2 -0.2000  1.8232 14.8472  8.4322
305 37 3  0.1000  2.0958 15.8271  6.3983
306 37 3  0.1000  0.4718 15.8746  7.1174
307 20 2 -0.2000 14.5157 35.4140 18.5626
308 20 3  0.1000 16.7736 35.2344 18.4108
309 20 3  0.1000 16.0068 34.4422 19.7640
310 21 2 -0.2000 43.3996 15.1769 27.7376
311 21 3  0.1000 44.4334 14.6858 29.5663
312 21 3  0.1000 44.1735 16.4483 29.4236
313 22 2 -0.2000 29.6342 28.3151  7.1949
314 22 3  0.1000 31.1120 27.0172  8.1603
315 22 3  0.1000 31.7586 28.4197  7.3594
316 23 2 -0.2000 12.7431 29.1945 18.3685
317 23 3  0.1000 13.6721 30.4032 20.0385
318 23 3  0.1000 12.1663 29.6489 20.3391
319 24 2 -0.2000  2.2141 21.1585 20.4322
320 24 3  0.1000 -0.0141 20.8752 20.8829
321 24 3  0.1000  0.7237 19.8475 19.6671
322 25 2 -0.2000 23.6009 17.6918 23.5212
323 25 3  0.1000 23.5487 15.4820 23.6907
324 25 3  0.1000 23.9532 16.2366 22.1187
325 26 2 -0.2000 22.6816 35.8132 36.6970
326 26 3  0.1000 23.4334 34.2879 37.9232
327 26 3  0.1000 21.9307 34.9498 38.4114
328 27 2 -0.2000  6.1657 30.1603 37.5317
329 27 3  0.1000  6.8270 28.3490 38.5306
330 27 3  0.1000  7.8986 29.1720 37.4789
331 28 2 -0.2000 38.7997  6.5257 30.8979
332 28 3  0.1000 38.8601  5.4334 32.8504
333 28 3  0.1000 37.9872  6.9325 32.8815
334 29 2 -0.2000 12.4756 36.0752 26.9657
335 29 3  0.1000 11.6270 38.3430 27.1145
336 29 3  0.1000 12.6975 37.8974 25.8510
337 30 2 -0.2000 35.1416 22.8970 33.6732
338 30 3  0.1000 33.5320 22.0194 32.7883
339 30 3  0.1000 34.1550 21.0158 34.0422
340 31 2 -0.2000 15.0431 33.5458 28.0506
341 31 3  0.1000 16.7223 32.3660 29.0832
342 31 3  0.1000 17.0464 33.1115 27.6797
343 32 2 -0.2000 44.0166 -2.3858 27.8105
344 32 3  0.1000 42.1952 -1.8908 28.9698
345 32 3  0.1000 42.5526 -0.9858 27.7797
346 33 2 -0.2000 27.5274 28.9414 30.9302
347 33 3  0.1000 27.7755 30.9332 30.5115
348 33 3  0.1000 28.7030 30.0492 29.4565
349 34 2 -0.2000 16.8378 22.3730 28.9065
350 34 3  0.1000 16.1887 21.0733 30.5953
351 34 3  0.1000 16.6258 22.6367 31.1229
352 35 2 -0.2000 13.1665  9.5071 35.5050
353 35 3  0.1000 13.8784  8.7989 37.3863
354 35 3  0.1000 12.9839  7.5798 36.4361
355 36 2 -0.2000 18.2419 10.8681  9.4635
356 36 3  0.1000 18.8858 12.9076  8.7627
357 36 3  0.1000 18.2456 12.7105 10.3629
358 37 2 -0.2000  0.4162 14.6885  8.9921
359 37 3  0.1000  2.4976 15.2694  9.1857
360 37 3  0.1000  2.2718 13.8860  8.0482
361 20 2 -0.2000 14.7687 36.4524 17.4425
362 20 3  0.1000 14.2492 35.8360 19.5698
363 20 3  0.1000 13.7426 34.7492 18.2138
364 21 2 -0.2000 44.5717 15.5861 26.7956
365 21 3  0.1000 42.5337 15.6292 27.3008
366 21 3  0.1000 43.1182 14.1070 27.6206
367 22 2 -0.2000 29.9569 27.5523  5.9143
368 22 3  0.1000 29.4992 29.3680  7.0617
369 22 3  0.1000 28.7332 27.9617  7.7245
370 23 2 -0.2000 11.7624 28.0488 18.2452
371 23 3  0.1000 13.5731 28.8928 17.7301
372 23 3  0.1000 12.4392 30.0819 17.8547
373 24 2 -0.2000  2.0317 21.9089 19.0874
374 24 3  0.1000  3.1446 20.4374 20.4288
375 24 3  0.1000  2.4133 21.9453 21.2474
376 25 2 -0.2000 23.5924 17.7955 25.0683
377 25 3  0.1000 22.6294 17.8701 22.9824
378 25 3  0.1000 24.3512 18.4763 23.1303
379 26 2 -0.2000 23.9724 36.6917 36.7529
380 26 3  0.1000 21.7710 36.4443 36.5959
381 26 3  0.1000 22.6989 35.4106 35.6334
382 27 2 -0.2000  6.5649 30.9036 36.3007
383 27 3  0.1000  5.6916 30.9389 38.1509
384 27 3  0.1000  5.3542 29.4855 37.2754
385 28 2 -0.2000 38.9174  8.0314 30.4991
386 28 3  0.1000 38.4948  5.9878 29.9314
387 28 3  0.1000 39.8696  6.1653 31.0370
388 29 2 -0.2000 12.4633 36.3866 28.4012
389 29 3  0.1000 13.4678 35.6084 26.6380
390 29 3  0.1000 11.6713 35.2786 26.7289
391 30 2 -0.2000 36.5551 22.5131 34.2877
392 30 3  0.1000 34.9802 23.9725 33.8790
393 30 3  0.1000 35.3334 22.8847 32.5482
394 31 2 -0.2000 14.0278 32.8977 28.9082
395 31 3  0.1000 15.0087 33.3650 26.9509
396 31 3  0.1000 14.7933 34.5454 28.1087
397 32 2 -0.2000 44.4325 -3.4426 28.8476
398 32 3  0.1000 44.4721 -1.3849 27.7735
399 32 3  0.1000 44.2782 -2.8648 26.8695
400 33 2 -0.2000 27.4231 29.3181 32.4378
401 33 3  0.1000 28.2054 28.0934 30.7138
402 33 3  0.1000 26.5457 28.4264 30.6691
403 34 2 -0.2000 17.4130 20.9465 28.5801
404 34 3  0.1000 17.5044 23.2752 28.8507
405 34 3  0.1000 16.1304 22.6352 28.1510
406 35 2 -0.2000 12.9111  9.0437 33.9858
407 35 3  0.1000 13.9259 10.3465 35.5730
408 35 3  0.1000 12.2981  9.9133 35.8375
409 36 2 -0.2000 16.8637 10.7062  8.7080
410 36 3  0.1000 18.3344 10.3672 10.5090
411 36 3  0.1000 18.9117 10.2237  8.8904
412 37 2 -0.2000  0.6085 13.4061  9.7423
413 37 3  0.1000 -0.5290 14.7575  8.4799
414 37 3  0.1000  0.3505 15.3686  9.8882
415 20 3  0.1000 14.0447 36.2662 16.6009
416 20 3  0.1000 15.7824 36.3798 16.9776
417 20 2 -0.2000 14.4640 37.8495 17.8713
418 21 3  0.1000 44.9802 16.6891 26.5235
419 21 3  0.1000 44.0821 15.4657 25.9106
420 21 2 -0.2000 45.7325 14.7311 26.7489
421 22 3  0.1000 29.0646 27.2753  5.3361
422 22 3  0.1000 30.4254 26.5766  6.2344
423 22 2 -0.2000 30.9764 28.0905  4.8603
424 23 3  0.1000 11.1387 27.9920 19.1562
425 23 3  0.1000 12.3647 27.1114 18.3010
426 23 2 -0.2000 11.0245 27.9277 16.9954
427 24 3  0.1000  1.0088 22.0289 18.6957
428 24 3  0.1000  2.3691 21.0801 18.3701
429 24 2 -0.2000  2.9925 23.0680 18.6588
430 25 3  0.1000 23.4372 16.7220 25.3615
431 25 3  0.1000 22.6257 18.2699 25.3104
432 25 2 -0.2000 24.6841 18.7130 25.4817
433 26 3  0.1000 24.8710 36.1728 36.1686
434 26 3  0.1000 24.2581 36.8207 37.8623
435 26 2 -0.2000 23.4304 38.0473 36.3449
436 27 3  0.1000  7.5708 30.6212 35.8946
437 27 3  0.1000  6.7123 32.0331 36.4172
438 27 2 -0.2000  5.4451 30.7416 35.3642
439 28 3  0.1000 39.0784  8.1186 29.4215
440 28 3  0.1000 39.8974  8.2721 30.8705
441 28 2 -0.2000 38.0161  8.9807 31.3814
442 29 3  0.1000 11.7806 35.6496 28.9572
443 29 3  0.1000 11.7460 37.2253 28.3602
444 29 2 -0.2000 13.7873 37.0118 28.7542
445 30 3  0.1000 37.1754 22.0028 33.6022
446 30 3  0.1000 36.3247 21.7384 35.0250
447 30 2 -0.2000 37.3433 23.5291 35.0598
448 31 3  0.1000 13.6463 33.6414 29.6286
449 31 3  0.1000 14.5307 32.0548 29.4835
450 31 2 -0.2000 13.0626 32.0856 28.0644
451 32 3  0.1000 44.3953 -3.1742 29.8947
452 32 3  0.1000 45.5872 -3.5522 28.7322
453 32 2 -0.2000 43.9492 -4.8338 28.6688
454 33 3  0.1000 26.4498 29.0992 32.8349
455 33 3  0.1000 27.4203 30.3898 32.4830
456 33 2 -0.2000 28.4938 28.6988 33.3325
457 34 3  0.1000 18.1374 20.6771 29.4199
458 34 3  0.1000 18.1012 21.0414 27.6923
459 34 2 -0.2000 16.2608 20.0000 28.5406
460 35 3  0.1000 12.6568  7.9673 34.1232
461 35 3  0.1000 13.8505  9.1436 33.3785
462 35 2 -0.2000 12.0013  9.9155 33.1945
463 36 3  0.1000 16.1443 10.6005  9.5303
464 36 3  0.1000 16.7328  9.7950  8.1096
465 36 2 -0.2000 16.5677 11.7898  7.6407
466 37 3  0.1000  1.3812 12.7390  9.4524
467 37 3  0.1000 -0.3223 12.9202  9.4253
468 37 2 -0.2000  0.4676 13.4760 11.2873
469 20 2 -0.2000 15.0534 38.3836 19.2028
470 20 3  0.1000 13.4335 38.2304 17.6966
471 20 3  0.1000 14.9880 38.4083 17.1085
472 21 2 -0.2000 46.7531 15.5131 27.4985
473 21 3  0.1000 45.9595 14.6522 25.6301
474 21 3  0.1000 45.5612 13.7089 27.1981
475 22 2 -0.2000 31.9310 26.9613  4.6375
476 22 3  0.1000 31.4395 29.0715  5.0676
477 22 3  0.1000 30.3926 28.2190  3.9262
478 23 2 -0.2000 11.5886 26.8756 16.1031
479 23 3  0.1000 10.8969 28.9041 16.4654
480 23 3  0.1000  9.9189 27.5792 17.1726
481 24 2 -0.2000  4.3899 22.4918 18.4755
482 24 3  0.1000  2.9287 24.0647 19.0446
483 24 3  0.1000  2.8219 23.2589 17.6218
484 25 2 -0.2000 24.3853 19.3392 26.8456
485 25 3  0.1000 24.9547 19.5472 24.6596
486 25 3  0.1000 25.6250 18.2190 25.5982
487 26 2 -0.2000 22.7925 38.0590 34.9718
488 26 3  0.1000 24.1212 38.8768 36.6872
489 26 3  0.1000 22.5292 38.2617 37.0109
490 27 2 -0.2000  5.6249 31.6114 34.0398
491 27 3  0.1000  4.5153 30.9394 35.9939
492 27 3  0.1000  5.4566 29.6758 35.0923
493 28 2 -0.2000 38.0136 10.2510 30.5413
494 28 3  0.1000 38.4307  9.1372 32.3177
495 28 3  0.1000 37.0188  8.5002 31.5344
496 29 2 -0.2000 14.2669 36.7759 30.2431
497 29 3  0.1000 13.7687 38.0201 28.4841
498 29 3  0.1000 14.6473 36.4259 28.1263
499 30 2 -0.2000 38.7399 22.9206 35.0077
500 30 3  0.1000 37.0660 23.6464 36.1286
501 30 3  0.1000 37.1889 24.5176 34.6963
502 31 2 -0.2000 11.8236 31.7547 28.8488
503 31 3  0.1000 13.5139 31.2358 27.6198
504 31 3  0.1000 12.8494 32.7763 27.1372
505 32 2 -0.2000 44.7775 -5.5446 27.4812
506 32 3  0.1000 42.8812 -4.6922 28.5463
507 32 3  0.1000 44.0522 -5.4318 29.6795
508 33 2 -0.2000 29.4015 29.8401 33.8003
509 33 3  0.1000 28.9365 27.7903 32.9314
510 33 3  0.1000 27.9541 28.3390 34.2550
511 34 2 -0.2000 15.7993 19.6239 27.1566
512 34 3  0.1000 15.4027 20.1132 29.1414
513 34 3  0.1000 16.7760 18.9953 28.9197
514 35 2 -0.2000 11.3333  9.4334 31.8758
515 35 3  0.1000 12.4026 10.8638 33.0639
516 35 3  0.1000 11.1708 10.1847 33.8882
517 36 2 -0.2000 15.9577 13.1603  8.0084
518 36 3  0.1000 16.0664 11.3830  6.8064
519 36 3  0.1000 17.5252 11.9969  7.1649
520 37 2 -0.2000  1.8699 13.5164 12.0710
521 37 3  0.1000 -0.1506 12.7135 11.7370
522 37 3  0.1000 -0.1561 14.3184 11.4993
523 20 2 -0.2000 15.7349 39.7820 18.9001
524 20 3  0.1000 15.7418 37.6250 19.7253
525 20 3  0.1000 14.2574 38.4986 19.9177
526 21 2 -0.2000 47.9301 14.6068 27.8187
527 21 3  0.1000 46.5022 16.0265 28.4303
528 21 3  0.1000 47.0241 16.4025 26.8596
529 22 2 -0.2000 31.0859 26.0432  3.7916
530 22 3  0.1000 32.4921 26.5593  5.4362
531 22 3  0.1000 32.5890 27.3317  3.8972
532 23 2 -0.2000 10.8419 25.6269 16.7636
533 23 3  0.1000 12.7536 26.7821 15.8967
534 23 3  0.1000 11.2090 26.9887 15.1671
535 24 2 -0.2000  4.8689 22.4739 16.9878
536 24 3  0.1000  4.5477 21.6115 19.0559
537 24 3  0.1000  5.0735 23.2188 18.9433
538 25 2 -0.2000 24.0576 20.7665 26.6869
539 25 3  0.1000 25.0141 19.2211 27.7718
540 25 3  0.1000 23.4381 18.8271 27.2283
541 26 2 -0.2000 23.4073 39.1932 34.0780
542 26 3  0.1000 21.6373 38.0817 34.9561
543 26 3  0.1000 23.1333 37.0322 34.4543
544 27 2 -0.2000  6.8324 31.3836 33.2010
545 27 3  0.1000  5.3867 32.6285 34.2720
546 27 3  0.1000  4.7231 31.3237 33.4316
547 28 2 -0.2000 36.7020 10.8933 29.9722
548 28 3  0.1000 38.8160 10.2675 29.7947
549 28 3  0.1000 38.4304 11.0427 31.3178
550 29 2 -0.2000 14.9191 38.0506 30.9466
551 29 3  0.1000 14.9884 35.8647 30.4435
552 29 3  0.1000 13.3780 36.5324 30.8373
553 30 2 -0.2000 39.4247 23.6244 36.1399
554 30 3  0.1000 39.2512 22.8866 34.0013
555 30 3  0.1000 38.6351 21.9078 35.3180
556 31 2 -0.2000 10.9501 32.9446 29.2485
557 31 3  0.1000 11.9800 30.9405 29.6062
558 31 3  0.1000 11.1574 31.1852 28.1153
559 32 2 -0.2000 43.8999 -5.5642 26.3337
560 32 3  0.1000 45.2357 -6.5357 27.8042
561 32 3  0.1000 45.5925 -4.9559 27.1507
562 33 2 -0.2000 30.0912 30.3879 32.5340
563 33 3  0.1000 29.9985 29.5673 34.5729
564 33 3  0.1000 28.8534 30.6699 34.1529
565 34 2 -0.2000 14.7943 18.3504 27.1841
566 34 3  0.1000 16.4075 19.4804 26.2403
567 34 3  0.1000 15.2080 20.4619 26.8927
568 35 2 -0.2000  9.8273  9.1615 32.1849
569 35 3  0.1000 11.7039  8.4580 31.5654
570 35 3  0.1000 11.4174 10.0812 30.9606
571 36 2 -0.2000 14.4047 12.9747  7.6663
572 36 3  0.1000 16.2851 13.9996  7.4555
573 36 3  0.1000 16.0236 13.4162  9.0391
574 37 2 -0.2000  1.7227 12.7572 13.3523
575 37 3  0.1000  2.2092 14.5393 12.4134
576 37 3  0.1000  2.7900 12.9384 11.5582
577 20 2 -0.2000 16.1180 40.5680 20.1658
578 20 3  0.1000 15.3640 40.3264 18.1003
579 20 3  0.1000 16.6655 39.4319 18.4585
580 21 2 -0.2000 48.8140 14.0852 26.7461
581 21 3  0.1000 47.6536 13.8734 28.5867
582 21 3  0.1000 48.6399 15.1712 28.3507
583 22 2 -0.2000 31.6230 24.6222  3.8694
584 22 3  0.1000 31.0224 26.5236  2.7946
585 22 3  0.1000 30.1008 25.9066  4.2410
586 23 2 -0.2000  9.3786 25.3886 16.3374
587 23 3  0.1000 11.2626 25.5465 17.7869
588 23 3  0.1000 11.3051 24.7049 16.3809
589 24 2 -0.2000  5.4507 23.8024 16.5735
590 24 3  0.1000  4.2679 21.9373 16.1309
591 24 3  0.1000  5.7209 21.8122 17.0055
592 25 2 -0.2000 23.1217 21.1478 27.7720
593 25 3  0.1000 23.7550 21.0178 25.6053
594 25 3  0.1000 25.0009 21.2220 26.7068
595 26 2 -0.2000 24.8634 39.6229 34.3908
596 26 3  0.1000 22.7492 40.0006 33.8556
597 26 3  0.1000 23.5277 38.5774 33.0656
598 27 2 -0.2000  6.7157 32.0723 31.8583
599 27 3  0.1000  7.1088 30.3217 33.0746
600 27 3  0.1000  7.6219 31.8022 33.9084
601 28 2 -0.2000 36.8399 11.2970 28.5212
602 28 3  0.1000 36.2918 11.5539 30.7417
603 28 3  0.1000 35.9039 10.1545 29.9729
604 29 2 -0.2000 13.8741 39.0447 31.4609
605 29 3  0.1000 15.7655 38.5570 30.5369
606 29 3  0.1000 15.4107 37.5265 31.8412
607 30 2 -0.2000 39.2760 25.0679 36.4366
608 30 3  0.1000 40.4726 23.3566 36.2037
609 30 3  0.1000 38.8646 23.1420 37.0485
610 31 2 -0.2000 10.4788 32.5651 30.6110
611 31 3  0.1000 10.2954 33.2523 28.4864
612 31 3  0.1000 11.6859 33.8050 29.3447
613 32 2 -0.2000 43.3031 -6.9573 26.1474
614 32 3  0.1000 44.3172 -5.0283 25.4502
615 32 3  0.1000 43.0569 -4.9305 26.5362
616 33 2 -0.2000 30.0546 31.8738 32.6179
617 33 3  0.1000 29.6977 29.9913 31.5662
618 33 3  0.1000 31.1901 30.2762 32.5797
619 34 2 -0.2000 14.0370 18.3458 25.8458
620 34 3  0.1000 14.2703 18.4035 28.2027
621 34 3  0.1000 15.4112 17.4098 27.2821
622 35 2 -0.2000  8.9313  8.9834 30.8447
623 35 3  0.1000  9.3877  9.8839 32.9159
624 35 3  0.1000  9.7921  8.2543 32.8371
625 36 2 -0.2000 13.7727 11.9167  8.6231
626 36 3  0.1000 14.1180 12.9632  6.6205
627 36 3  0.1000 13.8221 13.9597  8.0049
628 37 2 -0.2000  2.1237 11.3078 13.2823
629 37 3  0.1000  0.8008 12.8994 13.8455
630 37 3  0.1000  2.4427 13.2420 14.0773
631 20 2 -0.2000 16.9277 39.6761 21.2133
632 20 3  0.1000 15.1994 40.9569 20.6565
633 20 3  0.1000 16.8250 41.4190 19.8916
634 21 2 -0.2000 49.2101 15.2921 25.8028
635 21 3  0.1000 48.5242 13.1861 26.1122
636 21 3  0.1000 49.7039 13.6948 27.3140
637 22 2 -0.2000 30.7330 23.3879  3.9470
638 22 3  0.1000 32.4518 24.5221  4.5172
639 22 3  0.1000 32.1001 24.5260  2.9213
640 23 2 -0.2000  8.3259 25.6723 17.4660
641 23 3  0.1000  8.9730 24.4186 15.9081
642 23 3  0.1000  9.0830 26.1173 15.5238
643 24 2 -0.2000  5.2709 24.0587 15.0891
644 24 3  0.1000  6.5660 23.8894 16.8383
645 24 3  0.1000  5.0167 24.5816 17.1228
646 25 2 -0.2000 21.7996 20.9332 27.1536
647 25 3  0.1000 23.2401 22.2019 28.0491
648 25 3  0.1000 23.3018 20.4986 28.5622
649 26 2 -0.2000 24.9571 40.9860 34.9429
650 26 3  0.1000 25.5429 39.4043 33.5887
651 26 3  0.1000 25.2407 38.9701 35.1905
652 27 2 -0.2000  6.2278 33.4337 32.0646
653 27 3  0.1000  5.9273 31.4878 31.3117
654 27 3  0.1000  7.7700 32.0234 31.4198
655 28 2 -0.2000 35.5937 11.6678 27.6647
656 28 3  0.1000 37.4712 10.6276 27.9210
657 28 3  0.1000 37.4041 12.3287 28.5642
658 29 2 -0.2000 14.3618 40.5141 31.0369
659 29 3  0.1000 13.6267 38.9899 32.4962
660 29 3  0.1000 12.9084 38.8188 30.9838
661 30 2 -0.2000 40.0999 25.3220 37.7536
662 30 3  0.1000 38.2776 25.3432 36.4491
663 30 3  0.1000 39.6733 25.7030 35.6153
664 31 2 -0.2000 10.7098 33.7391 31.4451
665 31 3  0.1000 10.9912 31.6675 31.1096
666 31 3  0.1000  9.4291 32.2528 30.5120
667 32 2 -0.2000 42.2655 -7.3884 27.1799
668 32 3  0.1000 44.2351 -7.5920 26.2329
669 32 3  0.1000 42.8563 -7.0394 25.1286
670 33 2 -0.2000 31.4771 32.3684 32.3050
671 33 3  0.1000 29.5395 32.2933 33.5263
672 33 3  0.1000 29.4171 32.3168 31.8517
673 34 2 -0.2000 15.1032 18.2429 24.7390
674 34 3  0.1000 13.4303 19.2044 25.6562
675 34 3  0.1000 13.3921 17.4275 25.8936
676 35 2 -0.2000  7.6455  9.7101 31.0315
677 35 3  0.1000  8.9673  7.9573 30.3426
678 35 3  0.1000  9.4566  9.5676 30.0967
679 36 2 -0.2000 13.1574 12.7164  9.7912
680 36 3  0.1000 14.4109 10.9689  8.9000
681 36 3  0.1000 12.9070 11.5182  7.9913
682 37 2 -0.2000  1.6476 10.3504 14.4945
683 37 3  0.1000  3.2244 11.1420 13.0947
684 37 3  0.1000  1.5920 10.8726 12.3832
685 20 2 -0.2000 17.0679 40.2874 22.5885
686 20 3  0.1000 17.8743 39.1495 20.8808
687 20 3  0.1000 16.1747 38.8607 21.3359
688 21 2 -0.2000 50.6876 15.2438 25.2118
689 21 3  0.1000 49.1922 16.2765 26.1860
690 21 3  0.1000 48.4113 15.2032 24.9945
691 22 2 -0.2000 31.3955 22.0063  4.1753
692 22 3  0.1000 30.0007 23.4669  3.1834
693 22 3  0.1000 30.2197 23.5168  4.8408
694 23 2 -0.2000  8.2780 24.6110 18.7090
695 23 3  0.1000  7.3749 25.9231 16.9366
696 23 3  0.1000  8.4514 26.7024 17.8732
697 24 2 -0.2000  6.6046 24.1303 14.4477
698 24 3  0.1000  4.5042 24.8611 15.0574
699 24 3  0.1000  4.6829 23.2592 14.6394
700 25 2 -0.2000 21.5245 22.1225 26.2845
701 25 3  0.1000 21.0125 20.5224 27.7375
702 25 3  0.1000 22.0325 20.1340 26.5240
703 26 2 -0.2000 26.4755 41.1122 35.3249
704 26 3  0.1000 24.1946 41.3760 35.7116
705 26 3  0.1000 24.8562 41.6192 34.0933
706 27 2 -0.2000  7.4586 34.2084 32.7099
707 27 3  0.1000  5.2826 33.5980 32.6945
708 27 3  0.1000  6.0975 33.9510 30.9614
709 28 2 -0.2000 34.7644 12.8884 28.2012
710 28 3  0.1000 34.8153 10.8459 27.6753
711 28 3  0.1000 35.7486 11.7184 26.6255
712 29 2 -0.2000 13.3739 41.7665 31.2630
713 29 3  0.1000 14.6595 40.5274 29.9322