LAMMPS DATA FILE

4032 atoms 
 4014 bonds 
 7992 angles 
 11826 dihedrals 
 0 impropers 

 3 atom types 
 4 bond types 
 7 angle types 
 8 dihedral types 
 0 improper types 

0.00000  40.0000  xlo xhi
0.00000  40.0000  ylo yhi
0.00000  40.0000  zlo zhi

Masses

1  12.01115 
2  12.01115 
3  1.00797 

Pair Coeffs

1  0.038999995200   3.875409
2  0.038999995200   3.875409
3  0.038000001100   2.449971

Bond Coeffs

1 322.715800 1.526000 
2 340.617500 1.105000 
3 322.715800 1.526000 
4 340.617500 1.105000 

Angle Coeffs

1 46.600000 110.500000 
2 46.600000 110.500000 
3 44.400000 110.000000 
4 39.500000 106.400000 
5 44.400000 110.000000 
6 44.400000 110.000000 
7 39.500000 106.400000 

Dihedral Coeffs

1 0.158100 1 3 
2 0.158100 1 3 
3 0.158100 1 3 
4 0.158100 1 3 
5 0.158100 1 3 
6 0.158100 1 3 
7 0.158100 1 3 
8 0.158100 1 3 

Atoms

1 20 1 -0.3000 21.2702  9.0396 26.6613
2 20 2 -0.2000 22.6101  9.0656 27.4208
3 20 3  0.1000 21.4261  8.5065 25.8053
4 20 3  0.1000 20.6434 10.0513 26.6838
5 20 3  0.1000 20.7301  8.3255 27.3398
6 20 2 -0.2000 22.4757 10.2596 28.5120
7 20 3  0.1000 23.5198  9.1591 26.8052
8 20 3  0.1000 22.8195  8.1444 27.9635
9 20 2 -0.2000 23.4491 10.2282 29.6529
10 20 3  0.1000 21.4217 10.5145 29.0030
11 20 3  0.1000 22.6359 11.1878 27.8970
12 21 1 -0.3000 37.2277  9.7290 24.2015
13 21 2 -0.2000 36.7754 10.3264 25.5691
14 21 3  0.1000 38.2433 10.0711 23.7811
15 21 3  0.1000 36.4316  9.6548 23.4178
16 21 3  0.1000 37.5039  8.6408 24.2875
17 21 2 -0.2000 37.1699 11.7836 25.2642
18 21 3  0.1000 37.0975  9.9053 26.5257
19 21 3  0.1000 35.6385 10.3787 25.5859
20 21 2 -0.2000 38.6839 11.9633 25.0773
21 21 3  0.1000 36.9186 12.4071 26.1527
22 21 3  0.1000 36.7124 12.1686 24.4005
23 22 1 -0.3000 14.3750 27.1605 17.2516
24 22 2 -0.2000 14.3447 28.6696 17.3586
25 22 3  0.1000 15.4277 26.7735 17.3397
26 22 3  0.1000 14.0826 26.6296 16.3114
27 22 3  0.1000 13.6863 26.7456 18.1775
28 22 2 -0.2000 12.9979 29.1966 16.7126
29 22 3  0.1000 15.2347 29.0920 16.8288
30 22 3  0.1000 14.4964 29.0564 18.3412
31 22 2 -0.2000 12.8650 28.8176 15.2330
32 22 3  0.1000 12.9230 30.2843 16.9409
33 22 3  0.1000 12.0848 28.7326 17.2590
34 23 1 -0.3000 21.8408 20.4038 39.8444
35 23 2 -0.2000 22.7847 19.4245 40.6951
36 23 3  0.1000 21.4170 21.1406 40.4798
37 23 3  0.1000 20.9513 19.9641 39.3509
38 23 3  0.1000 22.4215 21.0911 39.0767
39 23 2 -0.2000 23.5286 19.9849 41.8978
40 23 3  0.1000 23.4903 18.9058 39.9745
41 23 3  0.1000 22.1205 18.7372 41.0553
42 23 2 -0.2000 25.0778 20.1503 41.6265
43 23 3  0.1000 23.4424 19.3257 42.7490
44 23 3  0.1000 23.1595 21.0034 42.2505
45 24 1 -0.3000  8.0155  8.3035 12.2846
46 24 2 -0.2000  8.5731  7.2564 11.3808
47 24 3  0.1000  7.5538  9.2311 11.8294
48 24 3  0.1000  8.5764  8.5121 13.1615
49 24 3  0.1000  7.0536  7.8179 12.6816
50 24 2 -0.2000  9.7072  6.5285 12.1451
51 24 3  0.1000  8.8993  7.7373 10.4030
52 24 3  0.1000  7.7445  6.4418 11.3885
53 24 2 -0.2000  9.2315  5.5840 13.1486
54 24 3  0.1000 10.4299  7.1468 12.7056
55 24 3  0.1000 10.3598  5.9906 11.4286
56 25 1 -0.3000 37.3806  2.2148 35.8434
57 25 2 -0.2000 38.4103  3.1228 35.3179
58 25 3  0.1000 36.8908  1.6509 35.1460
59 25 3  0.1000 36.6694  2.4257 36.7061
60 25 3  0.1000 38.0162  1.4784 36.2957
61 25 2 -0.2000 38.2951  4.3654 36.1075
62 25 3  0.1000 38.3724  3.2396 34.2151
63 25 3  0.1000 39.3057  2.6458 35.5602
64 25 2 -0.2000 39.3130  4.7225 37.1813
65 25 3  0.1000 37.2374  4.4707 36.4527
66 25 3  0.1000 38.4169  5.2174 35.3322
67 26 1 -0.3000 16.2520 17.3181  8.1396
68 26 2 -0.2000 17.3082 18.3264  8.8358
69 26 3  0.1000 16.1815 17.6491  7.0072
70 26 3  0.1000 15.2052 17.3233  8.6162
71 26 3  0.1000 16.6694 16.3398  8.1864
72 26 2 -0.2000 18.2514 17.6899  9.9096
73 26 3  0.1000 17.0018 19.3868  9.0954
74 26 3  0.1000 17.9410 18.5424  8.0147
75 26 2 -0.2000 18.0223 16.2459 10.3026
76 26 3  0.1000 18.4292 18.3597 10.8915
77 26 3  0.1000 19.2341 17.6957  9.3876
78 27 1 -0.3000 24.2794 36.9583 34.6934
79 27 2 -0.2000 24.7751 35.6957 35.3321
80 27 3  0.1000 24.9925 37.7311 34.8220
81 27 3  0.1000 23.2538 37.2393 34.8251
82 27 3  0.1000 24.3514 36.9155 33.5827
83 27 2 -0.2000 26.0876 35.0797 34.6472
84 27 3  0.1000 23.9657 34.9901 35.3033
85 27 3  0.1000 24.9099 35.8924 36.3704
86 27 2 -0.2000 27.1471 36.1274 34.2811
87 27 3  0.1000 25.8420 34.3152 33.8520
88 27 3  0.1000 26.5754 34.3290 35.3406
89 28 1 -0.3000 22.3726 27.9073 14.2279
90 28 2 -0.2000 22.2552 26.7669 15.3109
91 28 3  0.1000 21.7405 27.7251 13.3571
92 28 3  0.1000 23.4869 28.2208 13.9088
93 28 3  0.1000 21.9682 28.8580 14.7203
94 28 2 -0.2000 21.9642 25.4777 14.5958
95 28 3  0.1000 21.5654 27.0143 16.0981
96 28 3  0.1000 23.2776 26.7244 15.7353
97 28 2 -0.2000 20.6184 24.7786 14.8014
98 28 3  0.1000 22.7223 24.7306 14.7154
99 28 3  0.1000 22.0861 25.6715 13.4901
100 29 1 -0.3000 33.5616 30.5305 36.2151
101 29 2 -0.2000 34.6667 31.5675 36.4523
102 29 3  0.1000 33.5291 29.5807 36.9007
103 29 3  0.1000 33.5714 30.3927 35.1417
104 29 3  0.1000 32.5360 31.0893 36.4602
105 29 2 -0.2000 34.8581 31.5988 38.0264
106 29 3  0.1000 34.6124 32.3980 35.8449
107 29 3  0.1000 35.6155 31.1674 36.0228
108 29 2 -0.2000 35.6099 30.4128 38.5765
109 29 3  0.1000 33.9531 31.8402 38.5923
110 29 3  0.1000 35.5161 32.5012 38.2838
111 30 1 -0.3000 17.7334 18.3675  2.7565
112 30 2 -0.2000 18.7884 17.4967  2.2774
113 30 3  0.1000 17.9319 18.6110  3.8731
114 30 3  0.1000 16.7223 17.9572  2.6689
115 30 3  0.1000 17.9193 19.4894  2.3293
116 30 2 -0.2000 18.4162 16.0602  1.9157
117 30 3  0.1000 19.7351 17.5629  2.8794
118 30 3  0.1000 19.2728 17.9861  1.3504
119 30 2 -0.2000 17.4616 15.8721  0.7410
120 30 3  0.1000 18.0373 15.5107  2.8091
121 30 3  0.1000 19.3157 15.5410  1.6577
122 31 1 -0.3000 13.9463 10.8662  3.3856
123 31 2 -0.2000 13.7069  9.9885  2.1565
124 31 3  0.1000 14.9897 11.2629  3.3578
125 31 3  0.1000 14.1702 10.1745  4.2796
126 31 3  0.1000 13.1438 11.6098  3.4719
127 31 2 -0.2000 14.5121  8.7603  2.0447
128 31 3  0.1000 13.6416 10.4134  1.1506
129 31 3  0.1000 12.6420  9.5976  2.2638
130 31 2 -0.2000 15.5129  8.7506  0.8808
131 31 3  0.1000 13.8220  7.9094  2.0382
132 31 3  0.1000 15.0847  8.6608  2.9899
133 32 1 -0.3000 17.5471 20.2264 30.5203
134 32 2 -0.2000 19.0559 19.9773 30.8653
135 32 3  0.1000 17.4445 20.8214 29.6915
136 32 3  0.1000 17.0166 20.8746 31.2992
137 32 3  0.1000 17.0319 19.2805 30.4057
138 32 2 -0.2000 19.9931 20.7814 30.0256
139 32 3  0.1000 19.2502 18.8717 30.8863
140 32 3  0.1000 19.1064 20.3506 31.8271
141 32 2 -0.2000 20.9648 19.9230 29.2066
142 32 3  0.1000 20.4384 21.6221 30.5351
143 32 3  0.1000 19.3772 21.3694 29.2603
144 33 1 -0.3000 20.8279 32.0877  1.4222
145 33 2 -0.2000 19.9095 31.0178  1.8024
146 33 3  0.1000 21.4554 32.2630  2.3449
147 33 3  0.1000 20.3803 33.0247  1.1386
148 33 3  0.1000 21.4578 31.7411  0.5056
149 33 2 -0.2000 20.6595 29.7792  1.6427
150 33 3  0.1000 18.9062 31.2242  1.2551
151 33 3  0.1000 19.8597 31.1057  2.9314
152 33 2 -0.2000 21.4555 29.2894  2.8113
153 33 3  0.1000 21.1450 29.8461  0.6484
154 33 3  0.1000 19.8580 29.0380  1.5170
155 34 1 -0.3000 32.4071 19.6747  4.3046
156 34 2 -0.2000 31.8044 19.5914  2.9311
157 34 3  0.1000 33.0436 20.4659  4.2580
158 34 3  0.1000 33.2446 18.8449  4.4266
159 34 3  0.1000 31.7166 19.6209  5.1498
160 34 2 -0.2000 31.0991 18.2834  2.4619
161 34 3  0.1000 32.3798 20.1012  2.1057
162 34 3  0.1000 31.0380 20.3346  2.9959
163 34 2 -0.2000 32.1942 17.2164  2.4291
164 34 3  0.1000 30.5664 18.4180  1.4994
165 34 3  0.1000 30.3958 17.9578  3.2489
166 35 1 -0.3000 39.7033 17.9753 19.5881
167 35 2 -0.2000 41.2589 17.8918 19.2282
168 35 3  0.1000 39.1216 18.8407 19.2953
169 35 3  0.1000 39.7903 18.4409 20.4888
170 35 3  0.1000 39.1834 17.0500 19.6101
171 35 2 -0.2000 41.8363 16.5014 19.2316
172 35 3  0.1000 41.8810 18.7316 19.6845
173 35 3  0.1000 41.2112 18.2366 18.2146
174 35 2 -0.2000 42.5791 16.1752 20.4909
175 35 3  0.1000 42.5626 16.2411 18.3902
176 35 3  0.1000 40.9931 15.8226 19.0557
177 36 1 -0.3000  5.0054 33.6494 19.3627
178 36 2 -0.2000  6.2649 33.0974 20.0529
179 36 3  0.1000  4.2990 32.9413 18.8552
180 36 3  0.1000  5.1073 34.5867 18.6900
181 36 3  0.1000  4.2820 34.0992 20.1748
182 36 2 -0.2000  6.2581 31.7295 20.5751
183 36 3  0.1000  6.6996 33.8976 20.7130
184 36 3  0.1000  6.9954 33.1213 19.2314
185 36 2 -0.2000  5.5170 31.6520 21.8850
186 36 3  0.1000  7.3078 31.3251 20.5818
187 36 3  0.1000  5.6484 31.1094 19.9511
188 37 1 -0.3000 17.8347 14.8112 33.1249
189 37 2 -0.2000 16.5272 15.5319 32.8349
190 37 3  0.1000 17.7958 14.2363 34.0794
191 37 3  0.1000 18.8899 15.3509 32.9848
192 37 3  0.1000 17.9726 14.0830 32.3403
193 37 2 -0.2000 16.0981 16.0869 34.2753
194 37 3  0.1000 15.6277 15.0745 32.3206
195 37 3  0.1000 16.7763 16.4090 32.1280
196 37 2 -0.2000 14.9755 17.1633 34.1894
197 37 3  0.1000 17.0198 16.3419 34.7502
198 37 3  0.1000 15.7628 15.1906 34.8352
199 20 2 -0.2000 22.9738  9.4698 30.9942
200 20 3  0.1000 23.7608 11.2248 29.8951
201 20 3  0.1000 24.4204  9.7415 29.3426
202 21 2 -0.2000 39.1625 13.3124 25.8058
203 21 3  0.1000 38.9850 12.0431 23.9653
204 21 3  0.1000 39.2259 11.0383 25.5475
205 22 2 -0.2000 11.4147 29.0708 14.9079
206 22 3  0.1000 13.2231 27.7816 14.9588
207 22 3  0.1000 13.4579 29.4975 14.6892
208 23 2 -0.2000 25.5278 20.9399 40.4230
209 23 3  0.1000 25.4462 19.1863 41.5810
210 23 3  0.1000 25.5958 20.5421 42.5360
211 24 2 -0.2000  9.3844  5.9818 14.5866
212 24 3  0.1000  9.4885  4.4905 12.9077
213 24 3  0.1000  8.1604  5.5004 13.0020
214 25 2 -0.2000 40.5332  5.5769 36.8225
215 25 3  0.1000 39.6525  3.7466 37.6064
216 25 3  0.1000 38.7451  5.2572 37.9236
217 26 2 -0.2000 19.1809 15.5317 10.9668
218 26 3  0.1000 17.3965 15.5588  9.6359
219 26 3  0.1000 17.3003 16.4034 11.1627
220 27 2 -0.2000 28.2977 35.8635 33.4166
221 27 3  0.1000 27.3723 36.7043 35.1269
222 27 3  0.1000 26.6065 36.8805 33.7273
223 28 2 -0.2000 20.9565 23.3410 14.4340
224 28 3  0.1000 19.7797 25.3012 14.1739
225 28 3  0.1000 20.3284 24.8313 15.8914
226 29 2 -0.2000 34.7479 29.8966 39.7971
227 29 3  0.1000 36.6859 30.6860 38.7471
228 29 3  0.1000 35.5851 29.5978 37.8767
229 30 2 -0.2000 18.1460 15.1342 -0.4071
230 30 3  0.1000 16.8272 16.7605  0.5784
231 30 3  0.1000 16.7826 15.1665  1.1775
232 31 2 -0.2000 15.1022  7.6110  0.0066
233 31 3  0.1000 16.5428  8.6722  1.2294
234 31 3  0.1000 15.4137  9.6620  0.3398
235 32 2 -0.2000 22.0645 19.2249 30.1622
236 32 3  0.1000 21.3628 20.5748 28.4104
237 32 3  0.1000 20.2734 19.0944 28.7936
238 33 2 -0.2000 22.9031 29.8352  3.0560
239 33 3  0.1000 21.2631 28.2439  3.0393
240 33 3  0.1000 20.9045 29.7504  3.6679
241 34 2 -0.2000 32.9906 17.4794  1.1619
242 34 3  0.1000 31.8032 16.1352  2.4904
243 34 3  0.1000 32.8345 17.3747  3.3274
244 35 2 -0.2000 41.6378 15.4994 21.4399
245 35 3  0.1000 42.9694 17.0727 20.8148
246 35 3  0.1000 43.4620 15.5231 20.2783
247 36 2 -0.2000  6.3947 31.3507 23.0237
248 36 3  0.1000  4.6792 30.8886 21.9386
249 36 3  0.1000  5.0293 32.6695 22.1025
250 37 2 -0.2000 15.5241 18.4863 34.7859
251 37 3  0.1000 13.9339 16.7416 34.4796
252 37 3  0.1000 14.8923 17.4888 33.2141
253 20 2 -0.2000 22.6191 10.4985 32.0048
254 20 3  0.1000 23.6664  8.7951 31.4341
255 20 3  0.1000 22.0345  8.8709 30.7202
256 21 2 -0.2000 40.5773 13.7119 26.0737
257 21 3  0.1000 38.5202 13.5984 26.7278
258 21 3  0.1000 38.8144 14.1644 25.1585
259 22 2 -0.2000 11.0272 28.2875 13.7085
260 22 3  0.1000 11.2668 30.1803 14.6805
261 22 3  0.1000 10.8602 28.7530 15.7363
262 23 2 -0.2000 24.9397 22.3197 40.1803
263 23 3  0.1000 25.6986 20.2460 39.5541
264 23 3  0.1000 26.5374 21.1955 40.7591
265 24 2 -0.2000  9.9697  5.0281 15.6338
266 24 3  0.1000  8.4602  6.3930 14.8640
267 24 3  0.1000 10.1176  6.9069 14.5999
268 25 2 -0.2000 41.6916  4.5617 36.6649
269 25 3  0.1000 40.7342  6.4338 37.5214
270 25 3  0.1000 40.2341  5.9971 35.8302
271 26 2 -0.2000 18.6954 14.9910 12.3244
272 26 3  0.1000 20.1539 16.1573 10.9407
273 26 3  0.1000 19.5762 14.6370 10.3259
274 27 2 -0.2000 28.8751 37.0552 32.6296
275 27 3  0.1000 28.3972 34.9230 32.8779
276 27 3  0.1000 28.9902 35.7205 34.1421
277 28 2 -0.2000 21.7018 22.6911 15.6589
278 28 3  0.1000 21.6149 23.2697 13.4854
279 28 3  0.1000 20.0735 22.7412 14.2044
280 29 2 -0.2000 34.9395 28.4039 39.9072
281 29 3  0.1000 33.6532 30.0834 39.7326
282 29 3  0.1000 35.1583 30.4745 40.7003
283 30 2 -0.2000 18.5805 15.8673 -1.6550
284 30 3  0.1000 17.8557 14.2073 -0.7209
285 30 3  0.1000 19.1186 14.8907 -0.0605
286 31 2 -0.2000 15.5756  6.1921  0.2144
287 31 3  0.1000 15.2255  7.9489 -0.9657
288 31 3  0.1000 13.9845  7.5872  0.1599
289 32 2 -0.2000 23.5201 19.6375 29.8800
290 32 3  0.1000 21.8360 18.1426 30.3102
291 32 3  0.1000 21.8012 19.6361 31.2528
292 33 2 -0.2000 23.7622 29.8180  1.8124
293 33 3  0.1000 23.3261 29.3285  3.9957
294 33 3  0.1000 22.7676 30.9255  3.3549
295 34 2 -0.2000 33.2211 16.1309  0.4757
296 34 3  0.1000 33.9273 18.2082  1.2391
297 34 3  0.1000 32.1673 18.0070  0.4589
298 35 2 -0.2000 42.5836 14.5186 22.1317
299 35 3  0.1000 40.8049 14.9564 20.9945
300 35 3  0.1000 41.3055 16.1415 22.1712
301 36 2 -0.2000  7.0132 32.4890 23.8637
302 36 3  0.1000  7.0417 30.5495 22.8482
303 36 3  0.1000  5.6814 30.8873 23.7783
304 37 2 -0.2000 14.4072 19.4217 34.8946
305 37 3  0.1000 16.3415 18.9393 34.1068
306 37 3  0.1000 15.9136 18.2998 35.7364
307 20 2 -0.2000 23.9001 10.6599 32.8383
308 20 3  0.1000 21.7223 10.2765 32.5492
309 20 3  0.1000 22.3903 11.4143 31.4107
310 21 2 -0.2000 40.9071 15.1758 25.5910
311 21 3  0.1000 41.4009 13.0345 25.6523
312 21 3  0.1000 40.6824 13.6285 27.2759
313 22 2 -0.2000  9.9843 28.8293 12.6736
314 22 3  0.1000 10.6956 27.3266 14.0421
315 22 3  0.1000 12.0604 28.0652 13.1820
316 23 2 -0.2000 25.7419 23.5784 40.0844
317 23 3  0.1000 24.2332 22.5611 40.9074
318 23 3  0.1000 24.3243 22.1832 39.2105
319 24 2 -0.2000 11.3649  4.3883 15.3221
320 24 3  0.1000  9.3018  4.2545 15.9735
321 24 3  0.1000  9.9862  5.6921 16.4962
322 25 2 -0.2000 42.1640  4.5287 35.2125
323 25 3  0.1000 41.4515  3.5944 37.1043
324 25 3  0.1000 42.6122  4.9135 37.3128
325 26 2 -0.2000 19.2250 15.7212 13.5875
326 26 3  0.1000 18.8018 13.8616 12.4563
327 26 3  0.1000 17.5992 15.0596 12.3768
328 27 2 -0.2000 30.0117 36.7238 31.6430
329 27 3  0.1000 28.9904 37.8830 33.2994
330 27 3  0.1000 28.0790 37.3990 31.9792
331 28 2 -0.2000 20.8652 21.5739 16.2312
332 28 3  0.1000 22.0154 23.5702 16.3268
333 28 3  0.1000 22.6480 22.2893 15.1708
334 29 2 -0.2000 34.6901 27.7824 41.2444
335 29 3  0.1000 35.8321 27.9769 39.3431
336 29 3  0.1000 34.0969 28.1089 39.1885
337 30 2 -0.2000 19.8714 15.1755 -2.0334
338 30 3  0.1000 18.7289 16.9978 -1.5153
339 30 3  0.1000 17.6991 15.7648 -2.2815
340 31 2 -0.2000 16.9194  5.9616 -0.5313
341 31 3  0.1000 14.9421  5.4005 -0.0687
342 31 3  0.1000 15.7154  5.9534  1.2734
343 32 2 -0.2000 24.3111 18.6818 30.6708
344 32 3  0.1000 23.8769 20.8228 29.8268
345 32 3  0.1000 23.6832 19.2533 28.7958
346 33 2 -0.2000 25.2136 29.7447  2.0772
347 33 3  0.1000 23.6167 30.7965  1.1643
348 33 3  0.1000 23.5812 28.8502  1.1558
349 34 2 -0.2000 34.0218 15.0464  1.3161
350 34 3  0.1000 33.5406 16.1700 -0.5354
351 34 3  0.1000 32.1810 15.7691  0.3040
352 35 2 -0.2000 42.2952 13.1416 21.5697
353 35 3  0.1000 42.5169 14.4102 23.1935
354 35 3  0.1000 43.6312 14.8425 21.9850
355 36 2 -0.2000  8.1722 33.2666 23.1416
356 36 3  0.1000  7.4031 32.3244 24.9214
357 36 3  0.1000  6.2020 33.2269 23.9492
358 37 2 -0.2000 14.4726 20.4517 33.7681
359 37 3  0.1000 14.2012 19.8400 35.8730
360 37 3  0.1000 13.5138 18.8989 34.6775
361 20 2 -0.2000 24.6854 11.8885 32.7914
362 20 3  0.1000 24.5786  9.8191 32.7432
363 20 3  0.1000 23.5740 10.5719 33.8924
364 21 2 -0.2000 42.3192 15.5695 26.2180
365 21 3  0.1000 40.0891 15.8859 25.8584
366 21 3  0.1000 40.9515 15.0737 24.4953
367 22 2 -0.2000  8.8160 29.5066 13.3035
368 22 3  0.1000  9.6834 27.8453 12.2104
369 22 3  0.1000 10.5623 29.5627 11.9424
370 23 2 -0.2000 26.6950 23.5866 38.8840
371 23 3  0.1000 26.2340 23.8486 41.0671
372 23 3  0.1000 25.0385 24.3851 39.9011
373 24 2 -0.2000 11.6000  2.8949 15.4432
374 24 3  0.1000 12.1592  5.0615 15.5747
375 24 3  0.1000 11.4303  4.5197 14.2359
376 25 2 -0.2000 43.1809  5.6420 34.8610
377 25 3  0.1000 41.1782  4.5131 34.6823
378 25 3  0.1000 42.4890  3.4315 35.0051
379 26 2 -0.2000 18.4614 15.6000 14.8941
380 26 3  0.1000 19.4315 16.8201 13.3918
381 26 3  0.1000 20.1921 15.4106 13.7858
382 27 2 -0.2000 30.4568 37.8619 30.6608
383 27 3  0.1000 29.7633 35.7617 31.1080
384 27 3  0.1000 30.7688 36.4976 32.4087
385 28 2 -0.2000 21.7785 20.4820 16.8132
386 28 3  0.1000 19.9867 21.2610 15.5714
387 28 3  0.1000 20.3663 22.1176 17.0163
388 29 2 -0.2000 35.4199 26.4152 41.3440
389 29 3  0.1000 33.6957 27.6420 41.5204
390 29 3  0.1000 35.1203 28.5133 41.9254
391 30 2 -0.2000 20.0348 13.5860 -2.0950
392 30 3  0.1000 20.8256 15.5457 -1.5739
393 30 3  0.1000 19.9707 15.5100 -3.0412
394 31 2 -0.2000 16.7925  6.1336 -2.0353
395 31 3  0.1000 17.4000  4.9675 -0.3639
396 31 3  0.1000 17.6743  6.6636 -0.0382
397 32 2 -0.2000 25.6750 19.2816 30.7689
398 32 3  0.1000 24.5167 17.6086 30.3790
399 32 3  0.1000 23.9040 18.5744 31.6385
400 33 2 -0.2000 25.9189 30.9297  2.6348
401 33 3  0.1000 25.7961 29.4139  1.2675
402 33 3  0.1000 25.3168 28.8672  2.8403
403 34 2 -0.2000 33.1725 13.8684  0.7342
404 34 3  0.1000 34.0325 15.0543  2.4062
405 34 3  0.1000 35.0568 14.9602  0.9326
406 35 2 -0.2000 43.7641 12.5241 21.3587
407 35 3  0.1000 41.4632 13.0751 20.7254
408 35 3  0.1000 41.8223 12.4562 22.4095
409 36 2 -0.2000  9.5263 33.3626 23.8516
410 36 3  0.1000  7.8351 34.3323 22.8975
411 36 3  0.1000  8.2722 32.7216 22.1420
412 37 2 -0.2000 14.4565 21.9019 34.3478
413 37 3  0.1000 13.7641 20.3450 32.9621
414 37 3  0.1000 15.3394 20.3470 33.2208
415 20 3  0.1000 24.8991 12.4077 33.7584
416 20 3  0.1000 24.1313 12.6160 32.1621
417 20 2 -0.2000 26.0002 11.6280 32.0782
418 21 3  0.1000 42.9774 16.3118 25.7620
419 21 3  0.1000 42.8923 14.7191 26.4171
420 21 2 -0.2000 41.8887 16.0338 27.6337
421 22 3  0.1000  8.9187 30.5896 13.4458
422 22 3  0.1000  8.7656 29.1639 14.3997
423 22 2 -0.2000  7.6331 28.9894 12.5468
424 23 3  0.1000 26.9932 22.6166 38.5154
425 23 3  0.1000 27.5890 24.0593 39.1879
426 23 2 -0.2000 25.8901 24.1150 37.6132
427 24 3  0.1000 11.3013  2.1793 16.1607
428 24 3  0.1000 12.7766  2.8693 15.5399
429 24 2 -0.2000 11.3802  2.3271 14.1064
430 25 3  0.1000 44.1844  5.2977 35.1368
431 25 3  0.1000 43.0281  6.4494 35.6106
432 25 2 -0.2000 43.2041  6.1290 33.4356
433 26 3  0.1000 18.8963 14.7346 15.5839
434 26 3  0.1000 17.3804 15.4341 14.6822
435 26 2 -0.2000 18.5752 17.0576 15.3244
436 27 3  0.1000 31.4965 38.1926 30.8893
437 27 3  0.1000 29.8130 38.7835 30.7145
438 27 2 -0.2000 30.1104 37.3652 29.3235
439 28 3  0.1000 22.3205 19.8582 16.1079
440 28 3  0.1000 21.1521 19.7512 17.2160
441 28 2 -0.2000 22.6421 20.8903 17.9354
442 29 3  0.1000 35.5996 25.9332 40.3902
443 29 3  0.1000 34.7888 25.6970 41.8959
444 29 2 -0.2000 36.6894 26.6235 42.2293
445 30 3  0.1000 20.6496 13.1729 -2.8836
446 30 3  0.1000 18.9808 13.2239 -2.3274
447 30 2 -0.2000 20.6005 12.9645 -0.8167
448 31 3  0.1000 17.3450  7.0388 -2.4700
449 31 3  0.1000 15.6658  6.4099 -2.0966
450 31 2 -0.2000 17.1006  4.9089 -2.7565
451 32 3  0.1000 25.8907 19.9941 29.8528
452 32 3  0.1000 26.3359 18.5558 30.7128
453 32 2 -0.2000 25.7261 19.9574 32.1618
454 33 3  0.1000 25.4916 31.3051  3.5025
455 33 3  0.1000 25.8405 31.7317  1.9080
456 33 2 -0.2000 27.3652 30.3920  2.9021
457 34 3  0.1000 32.2025 14.1129  0.5857
458 34 3  0.1000 33.1664 13.0298  1.5365
459 34 2 -0.2000 33.8446 13.2024 -0.4780
460 35 3  0.1000 44.1789 11.8901 22.1669
461 35 3  0.1000 44.6065 13.4011 21.2824
462 35 2 -0.2000 43.9792 11.8170 19.9633
463 36 3  0.1000 10.0981 34.2340 23.5876
464 36 3  0.1000 10.1665 32.5386 23.5292
465 36 2 -0.2000  9.5301 33.1148 25.3334
466 37 3  0.1000 14.0251 22.0470 35.2925
467 37 3  0.1000 13.9428 22.5225 33.6249
468 37 2 -0.2000 15.8348 22.5064 34.5753
469 20 2 -0.2000 27.2358 11.8969 32.8681
470 20 3  0.1000 25.8306 12.2063 31.1500
471 20 3  0.1000 26.0827 10.5353 31.9045
472 21 2 -0.2000 42.6688 15.4786 28.8910
473 21 3  0.1000 40.8287 16.2031 27.7853
474 21 3  0.1000 42.1509 17.0981 27.6108
475 22 2 -0.2000  7.7407 28.7142 11.0534
476 22 3  0.1000  6.7231 29.6045 12.7171
477 22 3  0.1000  7.4537 27.9839 13.0446
478 23 2 -0.2000 26.3855 23.4722 36.3482
479 23 3  0.1000 25.9689 25.2369 37.6743
480 23 3  0.1000 24.8110 23.9660 37.7331
481 24 2 -0.2000 11.5415  0.8281 13.8841
482 24 3  0.1000 11.9562  2.8860 13.3726
483 24 3  0.1000 10.2952  2.6296 13.7202
484 25 2 -0.2000 42.1073  7.2078 32.9337
485 25 3  0.1000 43.2430  5.2091 32.8144
486 25 3  0.1000 44.1651  6.7049 33.2778
487 26 2 -0.2000 17.5925 17.3909 16.4499
488 26 3  0.1000 18.4400 17.7393 14.4977
489 26 3  0.1000 19.5442 17.3273 15.6962
490 27 2 -0.2000 29.5596 38.4743 28.4220
491 27 3  0.1000 29.4925 36.5263 29.3351
492 27 3  0.1000 31.1304 36.9691 28.8600
493 28 2 -0.2000 22.1414 21.5003 19.3094
494 28 3  0.1000 23.6971 21.1292 17.5684
495 28 3  0.1000 22.9090 19.8067 18.2766
496 29 2 -0.2000 37.6795 27.4144 41.4637
497 29 3  0.1000 37.0811 25.6086 42.5963
498 29 3  0.1000 36.4236 27.2453 43.1318
499 30 2 -0.2000 21.9022 12.5148 -1.3152
500 30 3  0.1000 19.8739 12.3038 -0.2977
501 30 3  0.1000 20.7723 13.6791 -0.0563
502 31 2 -0.2000 15.9269  3.9565 -2.7536
503 31 3  0.1000 18.1103  4.5894 -2.5172
504 31 3  0.1000 17.1638  5.2993 -3.7789
505 32 2 -0.2000 27.1524 20.3404 32.2224
506 32 3  0.1000 25.3216 19.3045 33.0319
507 32 3  0.1000 25.0992 20.7647 32.0377
508 33 2 -0.2000 27.9708 30.9527  4.1593
509 33 3  0.1000 28.0180 30.6507  2.0419
510 33 3  0.1000 27.3435 29.2508  2.9167
511 34 2 -0.2000 34.4511 11.8002 -0.0051
512 34 3  0.1000 34.4544 13.8039 -1.1373
513 34 3  0.1000 33.0883 12.9356 -1.1948
514 35 2 -0.2000 44.2170 10.2393 19.8452
515 35 3  0.1000 44.6428 12.2534 19.2086
516 35 3  0.1000 43.0121 11.9765 19.4618
517 36 2 -0.2000 10.9268 33.5848 25.7904
518 36 3  0.1000  9.3672 32.1383 25.6043
519 36 3  0.1000  8.7543 33.7106 25.8489
520 37 2 -0.2000 15.8145 23.8208 35.3122
521 37 3  0.1000 16.4067 22.3992 33.6219
522 37 3  0.1000 16.4012 21.8155 35.2196
523 20 2 -0.2000 28.1023 10.6938 32.7811
524 20 3  0.1000 27.0958 11.9532 33.9570
525 20 3  0.1000 27.8291 12.7892 32.5181
526 21 2 -0.2000 42.3547 13.9999 29.0290
527 21 3  0.1000 42.6457 16.0314 29.9607
528 21 3  0.1000 43.8032 15.4879 28.8068
529 22 2 -0.2000  6.4032 28.8610 10.2849
530 22 3  0.1000  8.3067 27.8889 10.7837
531 22 3  0.1000  8.2471 29.5944 10.6091
532 23 2 -0.2000 27.3029 24.3941 35.6839
533 23 3  0.1000 25.5421 23.2941 35.7615
534 23 3  0.1000 26.8370 22.4790 36.5491
535 24 2 -0.2000 12.9440  0.5666 13.5024
536 24 3  0.1000 10.7790  0.1952 13.3685
537 24 3  0.1000 11.4639  0.4864 14.8913
538 25 2 -0.2000 42.4583  8.5829 33.6273
539 25 3  0.1000 41.0921  6.7495 33.2114
540 25 3  0.1000 42.0354  7.3480 31.8563
541 26 2 -0.2000 17.6419 16.3083 17.5587
542 26 3  0.1000 16.5005 17.6790 16.1851
543 26 3  0.1000 17.9240 18.3899 16.7311
544 27 2 -0.2000 28.6778 37.9390 27.3558
545 27 3  0.1000 30.2676 39.3042 28.1674
546 27 3  0.1000 28.7842 38.9929 29.0076
547 28 2 -0.2000 21.1893 20.6857 20.1060
548 28 3  0.1000 21.7931 22.5886 19.1882
549 28 3  0.1000 23.1681 21.6151 19.9708
550 29 2 -0.2000 38.9591 27.7968 42.1036
551 29 3  0.1000 37.1694 28.1867 40.9804
552 29 3  0.1000 37.9562 26.8283 40.5470
553 30 2 -0.2000 22.8256 11.7811 -0.3869
554 30 3  0.1000 22.5033 13.2507 -1.9149
555 30 3  0.1000 21.5552 11.7284 -2.0246
556 31 2 -0.2000 15.4797  3.4879 -4.2046
557 31 3  0.1000 15.0162  4.3280 -2.3241
558 31 3  0.1000 16.1818  3.1284 -2.1377
559 32 2 -0.2000 27.7049 20.8635 33.5091
560 32 3  0.1000 27.5431 20.8875 31.3371
561 32 3  0.1000 27.6131 19.3833 32.1939
562 33 2 -0.2000 29.2892 31.5436  3.9490
563 33 3  0.1000 27.9596 30.2681  5.0223
564 33 3  0.1000 27.2956 31.7580  4.4289
565 34 2 -0.2000 33.6918 10.7433 -0.4875
566 34 3  0.1000 34.7231 11.6365  0.9432
567 34 3  0.1000 35.3825 11.6026 -0.4731
568 35 2 -0.2000 45.1008  9.7290 20.9228
569 35 3  0.1000 44.6888  9.8300 18.9235
570 35 3  0.1000 43.1864  9.8464 19.9792
571 36 2 -0.2000 11.4066 32.9242 27.1224
572 36 3  0.1000 11.2814 34.5655 25.6163
573 36 3  0.1000 11.5303 33.1317 25.0696
574 37 2 -0.2000 16.6038 24.8932 34.5994
575 37 3  0.1000 15.9482 23.8117 36.4156
576 37 3  0.1000 14.8209 24.1994 35.3311
577 20 2 -0.2000 28.5441 10.1558 31.4253
578 20 3  0.1000 27.8407  9.8472 33.3689
579 20 3  0.1000 29.0725 10.9917 33.1859
580 21 2 -0.2000 43.1309 13.3058 30.1392
581 21 3  0.1000 42.4612 13.4359 28.0801
582 21 3  0.1000 41.3628 13.8577 29.3641
583 22 2 -0.2000  5.6584 27.5418 10.3060
584 22 3  0.1000  6.5368 29.5131  9.4009
585 22 3  0.1000  5.8436 29.5266 10.9514
586 23 2 -0.2000 28.4455 24.8417 36.3539
587 23 3  0.1000 26.7732 25.2045 35.1805
588 23 3  0.1000 27.7079 23.8624 34.7868
589 24 2 -0.2000 13.2118 -0.9089 13.6545
590 24 3  0.1000 13.6152  1.3947 13.9258
591 24 3  0.1000 12.9873  0.6765 12.4279
592 25 2 -0.2000 41.3167  9.1785 34.4394
593 25 3  0.1000 42.7033  9.2613 32.9201
594 25 3  0.1000 43.3480  8.5241 34.2770
595 26 2 -0.2000 18.8261 16.4670 18.5432
596 26 3  0.1000 17.4481 15.2717 17.2063
597 26 3  0.1000 16.7193 16.5357 18.2118
598 27 2 -0.2000 27.6491 38.8927 26.7132
599 27 3  0.1000 28.2567 36.9714 27.4903
600 27 3  0.1000 29.3799 37.7677 26.5623
601 28 2 -0.2000 20.2414 21.4982 20.9227
602 28 3  0.1000 21.5647 19.8485 20.7805
603 28 3  0.1000 20.5283 20.1330 19.3658
604 29 2 -0.2000 40.0163 27.0659 41.3058
605 29 3  0.1000 39.0808 27.7707 43.1837
606 29 3  0.1000 39.0440 28.8530 41.8318
607 30 2 -0.2000 24.1268 11.3663 -1.1027
608 30 3  0.1000 22.3543 10.9808  0.1750
609 30 3  0.1000 23.0689 12.5563  0.2975
610 31 2 -0.2000 14.0478  2.9680 -4.3748
611 31 3  0.1000 16.1753  2.7005 -4.5138
612 31 3  0.1000 15.5180  4.3471 -4.8488
613 32 2 -0.2000 27.8495 19.5916 34.3808
614 32 3  0.1000 27.2384 21.7547 34.0282
615 32 3  0.1000 28.7219 21.1508 33.3103
616 33 2 -0.2000 29.8659 32.1019  5.2477
617 33 3  0.1000 29.3577 32.1888  3.0075
618 33 3  0.1000 29.9564 30.6896  3.7377
619 34 2 -0.2000 33.7348 10.3552 -1.9744
620 34 3  0.1000 32.6575 10.6916  0.0149
621 34 3  0.1000 34.0351  9.9123 -0.0151
622 35 2 -0.2000 44.9503  8.2712 21.1389
623 35 3  0.1000 44.9801 10.2215 21.8146
624 35 3  0.1000 46.2127  9.9410 20.6371
625 36 2 -0.2000 12.8599 32.7951 27.3115
626 36 3  0.1000 10.6878 32.0972 27.3964
627 36 3  0.1000 11.1732 33.6980 27.9156
628 37 2 -0.2000 16.0117 26.1685 35.0224
629 37 3  0.1000 16.5891 24.5338 33.5420
630 37 3  0.1000 17.6365 24.7754 34.9734
631 20 2 -0.2000 28.4868  8.5926 31.4994
632 20 3  0.1000 29.6029 10.4767 31.3716
633 20 3  0.1000 28.1151 10.7311 30.5921
634 21 2 -0.2000 43.8585 12.0931 29.6306
635 21 3  0.1000 42.3698 13.2132 30.9730
636 21 3  0.1000 43.9306 13.9622 30.4519
637 22 2 -0.2000  6.1289 26.5999  9.2620
638 22 3  0.1000  4.5317 27.5773 10.4172
639 22 3  0.1000  6.0099 27.0605 11.2222
640 23 2 -0.2000 29.7468 24.8125 35.5588
641 23 3  0.1000 28.6354 24.3553 37.3064
642 23 3  0.1000 28.2787 25.9108 36.6211
643 24 2 -0.2000 13.7674 -1.0693 15.0627
644 24 3  0.1000 13.6605 -1.2415 12.6626
645 24 3  0.1000 12.1811 -1.3542 13.7351
646 25 2 -0.2000 40.8157 10.5189 33.7635
647 25 3  0.1000 41.5220  9.1384 35.5415
648 25 3  0.1000 40.4893  8.5526 34.2969
649 26 2 -0.2000 19.3271 15.1447 19.2263
650 26 3  0.1000 18.7672 17.3736 19.0478
651 26 3  0.1000 19.6934 16.6459 17.8921
652 27 2 -0.2000 27.4968 38.8244 25.2800
653 27 3  0.1000 27.9077 39.8754 26.9827
654 27 3  0.1000 26.6339 38.6925 27.1705
655 28 2 -0.2000 18.9598 20.6938 21.0330
656 28 3  0.1000 20.2879 22.6087 20.5801
657 28 3  0.1000 20.6176 21.7227 21.9318
658 29 2 -0.2000 39.8502 25.6429 40.9355
659 29 3  0.1000 41.0051 27.3540 41.6663
660 29 3  0.1000 39.9081 27.5969 40.3156
661 30 2 -0.2000 24.4999  9.9245 -1.3851
662 30 3  0.1000 25.0564 11.9419 -0.7266
663 30 3  0.1000 24.0051 11.8661 -2.1436
664 31 2 -0.2000 13.5751  3.2252 -5.8485
665 31 3  0.1000 13.2362  3.1793 -3.5469
666 31 3  0.1000 14.1219  1.8624 -4.2685
667 32 2 -0.2000 27.5328 19.4962 35.8339
668 32 3  0.1000 28.7991 19.0813 34.1439
669 32 3  0.1000 27.0561 18.8752 33.9165
670 33 2 -0.2000 31.2887 31.8055  5.6593
671 33 3  0.1000 29.1864 31.7342  6.0129
672 33 3  0.1000 29.8564 33.2364  5.1954
673 34 2 -0.2000 35.2608 10.0250 -2.3181
674 34 3  0.1000 33.4144 11.2680 -2.5323
675 34 3  0.1000 33.0281  9.5648 -2.2843
676 35 2 -0.2000 45.8856  7.3144 20.3748
677 35 3  0.1000 43.8740  7.8845 21.0844
678 35 3  0.1000 45.1755  8.1122 22.1671
679 36 2 -0.2000 13.6181 34.0037 27.9017
680 36 3  0.1000 13.4126 32.3208 26.4396
681 36 3  0.1000 12.9587 32.0495 28.1136
682 37 2 -0.2000 17.0948 27.2374 34.9702
683 37 3  0.1000 15.4197 26.1980 35.9894
684 37 3  0.1000 15.2587 26.4131 34.2416
685 20 2 -0.2000 28.8755  8.0207 30.1580
686 20 3  0.1000 27.4552  8.3044 31.9240
687 20 3  0.1000 29.3066  8.2665 32.2476
688 21 2 -0.2000 44.7815 12.1035 28.4374
689 21 3  0.1000 43.2574 11.2178 29.6058
690 21 3  0.1000 44.5615 11.7607 30.5111
691 22 2 -0.2000  7.2755 25.5554  9.5262
692 22 3  0.1000  6.1208 27.0930  8.2335
693 22 3  0.1000  5.2838 26.0040  9.1088
694 23 2 -0.2000 30.4043 26.1542 35.4525
695 23 3  0.1000 29.5807 24.4456 34.4704
696 23 3  0.1000 30.5164 24.1169 36.0198
697 24 2 -0.2000 13.7373 -2.4980 15.3234
698 24 3  0.1000 13.5177 -0.3557 15.9032
699 24 3  0.1000 14.8600 -0.8485 14.9511
700 25 2 -0.2000 39.5699 11.0655 34.5046
701 25 3  0.1000 40.7009 10.6011 32.6215
702 25 3  0.1000 41.6385 11.2001 34.0250
703 26 2 -0.2000 19.1653 13.7957 18.5201
704 26 3  0.1000 19.0951 15.1115 20.2871
705 26 3  0.1000 20.3723 15.2409 19.2669
706 27 2 -0.2000 26.1197 38.3884 24.8591
707 27 3  0.1000 28.2277 38.2391 24.7858
708 27 3  0.1000 27.6609 39.8725 24.8360
709 28 2 -0.2000 18.0917 20.7878 22.3472
710 28 3  0.1000 19.0236 19.6504 20.6379
711 28 3  0.1000 18.3352 21.3261 20.3441
712 29 2 -0.2000 41.1636 24.9046 40.5715
713 29 3  0.1000 39.1579 25.5192 40.0365