LAMMPS DATA FILE

4032 atoms 
 4014 bonds 
 7992 angles 
 11826 dihedrals 
 0 impropers 

 3 atom types 
 4 bond types 
 7 angle types 
 8 dihedral types 
 0 improper types 

0.00000  40.0000  xlo xhi
0.00000  40.0000  ylo yhi
0.00000  40.0000  zlo zhi

Masses

1  12.01115 
2  12.01115 
3  1.00797 

Pair Coeffs

1  0.038999995200   3.875409
2  0.038999995200   3.875409
3  0.038000001100   2.449971

Bond Coeffs

1 322.715800 1.526000 
2 340.617500 1.105000 
3 322.715800 1.526000 
4 340.617500 1.105000 

Angle Coeffs

1 46.600000 110.500000 
2 46.600000 110.500000 
3 44.400000 110.000000 
4 39.500000 106.400000 
5 44.400000 110.000000 
6 44.400000 110.000000 
7 39.500000 106.400000 

Dihedral Coeffs

1 0.158100 1 3 
2 0.158100 1 3 
3 0.158100 1 3 
4 0.158100 1 3 
5 0.158100 1 3 
6 0.158100 1 3 
7 0.158100 1 3 
8 0.158100 1 3 

Atoms

1 20 1 -0.3000 37.4850 31.8739  0.2685
2 20 2 -0.2000 36.7369 32.5914  1.4416
3 20 3  0.1000 36.8555 31.8802 -0.7520
4 20 3  0.1000 37.8149 30.8279  0.5002
5 20 3  0.1000 38.4390 32.4357  0.0764
6 20 2 -0.2000 37.5902 33.5602  2.3213
7 20 3  0.1000 35.9759 31.8947  1.9439
8 20 3  0.1000 36.1436 33.2329  0.9621
9 20 2 -0.2000 37.4913 34.9187  1.6798
10 20 3  0.1000 38.4018 33.0896  2.6538
11 20 3  0.1000 37.0733 33.7716  3.3596
12 21 1 -0.3000 27.3641  5.0616 21.4463
13 21 2 -0.2000 26.0487  4.7160 21.9487
14 21 3  0.1000 27.6671  4.3065 20.7614
15 21 3  0.1000 28.1966  5.2760 22.1058
16 21 3  0.1000 27.3516  5.9750 20.8350
17 21 2 -0.2000 25.5942  5.1936 23.3937
18 21 3  0.1000 25.7917  3.7310 21.7969
19 21 3  0.1000 25.3287  5.2730 21.2718
20 21 2 -0.2000 26.8627  5.0576 24.3826
21 21 3  0.1000 24.9079  4.4950 23.9136
22 21 3  0.1000 25.2565  6.2558 23.3747
23 22 1 -0.3000 37.9440 34.7318 32.2091
24 22 2 -0.2000 36.7514 33.9651 32.6780
25 22 3  0.1000 38.0190 35.6273 32.8518
26 22 3  0.1000 37.8709 34.9150 31.1877
27 22 3  0.1000 38.9392 34.1350 32.4127
28 22 2 -0.2000 36.0831 33.0503 31.5732
29 22 3  0.1000 36.1677 34.5885 33.3075
30 22 3  0.1000 37.1275 33.0958 33.3972
31 22 2 -0.2000 36.9871 31.7814 31.3526
32 22 3  0.1000 35.8616 33.6646 30.6725
33 22 3  0.1000 35.0942 32.6721 31.8663
34 23 1 -0.3000 37.2458 17.7254  4.7576
35 23 2 -0.2000 35.9380 18.2029  4.0810
36 23 3  0.1000 37.1962 16.7464  5.2355
37 23 3  0.1000 37.5947 18.5558  5.4325
38 23 3  0.1000 38.0597 17.6169  4.1039
39 23 2 -0.2000 35.9999 17.9802  2.6160
40 23 3  0.1000 35.7329 19.2604  4.3945
41 23 3  0.1000 35.0198 17.7725  4.4338
42 23 2 -0.2000 35.4356 19.1165  1.7131
43 23 3  0.1000 35.7910 16.9293  2.3443
44 23 3  0.1000 37.1038 18.1374  2.3467
45 24 1 -0.3000  0.3780 19.3524 39.7018
46 24 2 -0.2000 -0.0575 17.9729 40.2551
47 24 3  0.1000  0.5053 20.2138 40.4229
48 24 3  0.1000  0.0372 19.6812 38.7413
49 24 3  0.1000  1.4251 19.1812 39.4013
50 24 2 -0.2000  1.1792 17.0960 40.4359
51 24 3  0.1000 -0.8303 17.4932 39.7758
52 24 3  0.1000 -0.4905 18.1703 41.2531
53 24 2 -0.2000  1.7633 17.3439 41.8096
54 24 3  0.1000  1.8913 17.2759 39.5568
55 24 3  0.1000  0.9329 16.0419 40.3136
56 25 1 -0.3000 37.7873 20.0678 25.4507
57 25 2 -0.2000 36.7045 20.4265 24.5280
58 25 3  0.1000 37.6858 19.0478 25.7312
59 25 3  0.1000 37.6499 20.8886 26.3822
60 25 3  0.1000 38.7572 20.1074 24.8531
61 25 2 -0.2000 37.1154 21.1690 23.2460
62 25 3  0.1000 35.7217 20.8826 24.9769
63 25 3  0.1000 36.3816 19.4434 24.1908
64 25 2 -0.2000 36.3767 22.4282 22.7391
65 25 3  0.1000 37.1440 20.4423 22.4057
66 25 3  0.1000 38.1459 21.4714 23.4783
67 26 1 -0.3000 23.8630 27.5426 22.0394
68 26 2 -0.2000 23.3391 28.0147 20.7319
69 26 3  0.1000 24.2781 28.4934 22.5718
70 26 3  0.1000 24.5724 26.7463 21.9497
71 26 3  0.1000 23.1127 27.0666 22.5945
72 26 2 -0.2000 23.9448 27.1644 19.5962
73 26 3  0.1000 23.2294 29.0893 20.6260
74 26 3  0.1000 22.3107 27.6476 20.7421
75 26 2 -0.2000 24.5533 27.8287 18.4139
76 26 3  0.1000 23.3156 26.3445 19.3214
77 26 3  0.1000 24.8026 26.7092 20.1613
78 27 1 -0.3000 36.3371 35.0422 26.6345
79 27 2 -0.2000 36.3560 35.7050 25.1325
80 27 3  0.1000 35.4856 35.3776 27.2150
81 27 3  0.1000 37.2403 35.0259 27.3828
82 27 3  0.1000 36.1236 33.9929 26.5548
83 27 2 -0.2000 35.6255 35.0833 24.0359
84 27 3  0.1000 37.3760 35.9312 24.9111
85 27 3  0.1000 35.8889 36.7010 25.2457
86 27 2 -0.2000 34.8081 33.8700 24.4588
87 27 3  0.1000 36.1622 34.9641 23.0717
88 27 3  0.1000 34.9165 35.7888 23.7134
89 28 1 -0.3000  0.1276 33.2976 12.3937
90 28 2 -0.2000  0.4817 31.8963 12.8714
91 28 3  0.1000 -0.4196 33.9720 12.9568
92 28 3  0.1000 -0.2229 33.4457 11.3078
93 28 3  0.1000  1.1220 33.8365 12.3227
94 28 2 -0.2000 -0.0555 31.2707 14.0726
95 28 3  0.1000  1.6131 31.7537 12.9172
96 28 3  0.1000  0.2064 31.1676 12.0286
97 28 2 -0.2000 -1.5573 30.8261 14.1298
98 28 3  0.1000  0.2769 31.9151 15.0312
99 28 3  0.1000  0.5031 30.3485 14.1907
100 29 1 -0.3000 11.4583  4.1335  4.7959
101 29 2 -0.2000 10.8729  3.7788  3.5488
102 29 3  0.1000 12.4531  3.7021  4.8583
103 29 3  0.1000 10.9094  4.3406  5.6288
104 29 3  0.1000 11.7214  5.1407  4.5194
105 29 2 -0.2000  9.4441  4.2086  3.5638
106 29 3  0.1000 11.0685  2.8247  3.1717
107 29 3  0.1000 11.4816  4.4130  2.7689
108 29 2 -0.2000  8.4586  3.0494  3.4133
109 29 3  0.1000  9.3848  5.0433  2.9685
110 29 3  0.1000  9.1968  4.5760  4.6237
111 30 1 -0.3000 33.5550 29.2756 21.4088
112 30 2 -0.2000 32.4753 28.4918 20.7670
113 30 3  0.1000 34.3864 29.2301 20.6667
114 30 3  0.1000 33.6511 28.9733 22.4425
115 30 3  0.1000 33.2235 30.3652 21.5719
116 30 2 -0.2000 31.3373 29.4308 20.9639
117 30 3  0.1000 32.4835 27.4826 21.0913
118 30 3  0.1000 32.7521 28.5325 19.6795
119 30 2 -0.2000 30.7999 30.3634 19.9325
120 30 3  0.1000 31.3243 29.9163 21.9867
121 30 3  0.1000 30.4549 28.7926 21.1002
122 31 1 -0.3000 29.3482 27.7143 32.8275
123 31 2 -0.2000 30.0314 27.7435 34.2317
124 31 3  0.1000 30.1168 27.2557 32.1746
125 31 3  0.1000 28.8761 28.5125 32.2721
126 31 3  0.1000 28.4772 27.0317 32.8695
127 31 2 -0.2000 31.1280 28.6919 34.4716
128 31 3  0.1000 30.0658 26.6859 34.7100
129 31 3  0.1000 29.3211 28.0958 34.8619
130 31 2 -0.2000 30.8752 30.1404 34.7971
131 31 3  0.1000 31.9286 28.6187 33.7448
132 31 3  0.1000 31.5641 28.2714 35.3605
133 32 1 -0.3000  5.7999 18.7977  2.7802
134 32 2 -0.2000  7.0440 17.9740  3.0148
135 32 3  0.1000  5.8770 19.7222  3.3561
136 32 3  0.1000  4.8127 18.1789  2.8409
137 32 3  0.1000  5.8211 19.0761  1.6739
138 32 2 -0.2000  7.3568 17.0727  1.8302
139 32 3  0.1000  7.1574 17.2651  3.9423
140 32 3  0.1000  7.8462 18.6584  3.1503
141 32 2 -0.2000  8.9177 16.8649  1.5655
142 32 3  0.1000  6.8088 17.3108  0.8597
143 32 3  0.1000  6.9647 16.0924  2.0774
144 33 1 -0.3000  6.7345 31.5968 11.6603
145 33 2 -0.2000  5.4654 31.0856 12.3382
146 33 3  0.1000  6.4299 31.9707 10.7077
147 33 3  0.1000  7.6190 31.1156 11.6091
148 33 3  0.1000  7.0490 32.5528 12.2128
149 33 2 -0.2000  4.8840 30.1487 11.2903
150 33 3  0.1000  4.8215 31.8841 12.6253
151 33 3  0.1000  5.6945 30.5402 13.2104
152 33 2 -0.2000  3.8066 30.7132 10.3853
153 33 3  0.1000  4.6585 29.1764 11.6706
154 33 3  0.1000  5.6584 29.9171 10.5532
155 34 1 -0.3000 10.8978  9.5971 35.5471
156 34 2 -0.2000 11.5962  8.3250 35.0272
157 34 3  0.1000 10.5258 10.2069 34.7772
158 34 3  0.1000 11.5360 10.1547 36.2941
159 34 3  0.1000 10.0199  9.3947 36.2451
160 34 2 -0.2000 13.0381  8.5883 35.6596
161 34 3  0.1000 11.6842  8.5101 33.8763
162 34 3  0.1000 11.0280  7.3849 35.2754
163 34 2 -0.2000 13.8283  7.2785 35.9795
164 34 3  0.1000 12.9567  9.1134 36.6405
165 34 3  0.1000 13.7500  9.3161 35.1361
166 35 1 -0.3000  2.9761 15.7308 36.7196
167 35 2 -0.2000  4.0777 14.9164 36.1622
168 35 3  0.1000  2.7989 16.5369 35.9656
169 35 3  0.1000  3.0025 16.2293 37.6990
170 35 3  0.1000  2.0887 15.0026 36.7443
171 35 2 -0.2000  3.5254 13.6995 35.4023
172 35 3  0.1000  4.7707 14.6152 36.9492
173 35 3  0.1000  4.6648 15.5566 35.4859
174 35 2 -0.2000  2.3596 13.8427 34.4309
175 35 3  0.1000  3.4025 12.7168 35.8654
176 35 3  0.1000  4.3085 13.4306 34.6315
177 36 1 -0.3000 36.7627  8.0451  5.4329
178 36 2 -0.2000 37.6083  6.7468  5.4885
179 36 3  0.1000 37.1165  8.7045  6.2703
180 36 3  0.1000 35.7336  7.9466  5.3610
181 36 3  0.1000 37.0555  8.5720  4.4833
182 36 2 -0.2000 38.1028  6.1513  6.8367
183 36 3  0.1000 38.4956  6.8928  4.8282
184 36 3  0.1000 36.9863  6.0125  4.9415
185 36 2 -0.2000 38.6656  7.3507  7.6727
186 36 3  0.1000 38.7697  5.3522  6.5710
187 36 3  0.1000 37.2977  5.6446  7.4000
188 37 1 -0.3000 15.8228 35.7188 12.8182
189 37 2 -0.2000 14.8251 34.6108 12.8836
190 37 3  0.1000 16.3279 35.9348 11.8738
191 37 3  0.1000 16.7074 35.5353 13.4363
192 37 3  0.1000 15.5081 36.6446 13.2899
193 37 2 -0.2000 13.5865 35.0531 13.6225
194 37 3  0.1000 15.3156 33.6773 13.2193
195 37 3  0.1000 14.5847 34.2373 11.8673
196 37 2 -0.2000 12.3751 34.9298 12.6473
197 37 3  0.1000 13.5639 36.0008 14.0553
198 37 3  0.1000 13.3614 34.4131 14.4692
199 20 2 -0.2000 38.8186 35.1276  0.8284
200 20 3  0.1000 37.2561 35.7622  2.3576
201 20 3  0.1000 36.6567 34.9595  0.8316
202 21 2 -0.2000 26.5096  3.9980 25.3696
203 21 3  0.1000 27.0948  5.9479 24.9919
204 21 3  0.1000 27.7669  4.6589 23.8776
205 22 2 -0.2000 37.0867 31.5492 29.8539
206 22 3  0.1000 36.8747 30.8277 31.9866
207 22 3  0.1000 37.9647 32.1238 31.6672
208 23 2 -0.2000 36.0767 19.5845  0.4746
209 23 3  0.1000 34.9196 19.9459  2.2129
210 23 3  0.1000 34.5157 18.5792  1.2462
211 24 2 -0.2000  1.7035 16.3238 42.8499
212 24 3  0.1000  1.3788 18.2945 42.2541
213 24 3  0.1000  2.8444 17.6463 41.6065
214 25 2 -0.2000 36.4605 23.7704 23.4640
215 25 3  0.1000 35.2821 22.2924 22.5375
216 25 3  0.1000 36.7179 22.6250 21.7278
217 26 2 -0.2000 26.0588 28.3544 18.6019
218 26 3  0.1000 23.9454 28.5424 17.7927
219 26 3  0.1000 24.6197 26.9378 17.7356
220 27 2 -0.2000 35.4541 32.4554 24.1543
221 27 3  0.1000 33.6944 33.8780 24.2568
222 27 3  0.1000 34.6989 34.0084 25.5042
223 28 2 -0.2000 -2.0551 29.4794 13.6410
224 28 3  0.1000 -2.3253 31.7231 14.0421
225 28 3  0.1000 -1.6560 30.6536 15.2276
226 29 2 -0.2000  7.2206  3.8148  2.8153
227 29 3  0.1000  8.3046  2.4021  4.2106
228 29 3  0.1000  8.8512  2.4217  2.5860
229 30 2 -0.2000 30.2335 29.4926 18.8310
230 30 3  0.1000 31.3456 31.2296 19.5707
231 30 3  0.1000 29.8769 30.7692 20.3701
232 31 2 -0.2000 30.8335 31.2698 33.8090
233 31 3  0.1000 31.4312 30.3191 35.7084
234 31 3  0.1000 29.8098 30.0733 35.1228
235 32 2 -0.2000  9.4320 15.3857  1.3635
236 32 3  0.1000  9.6221 17.4698  2.1950
237 32 3  0.1000  8.9678 17.3559  0.5514
238 33 2 -0.2000  3.6827 29.5343  9.4154
239 33 3  0.1000  4.1323 31.6914  9.8997
240 33 3  0.1000  2.9432 30.8430 10.8781
241 34 2 -0.2000 14.5419  7.2301 37.3381
242 34 3  0.1000 14.5349  7.0497 35.0915
243 34 3  0.1000 13.1431  6.4888 36.0717
244 35 2 -0.2000  2.2263 15.0459 33.4309
245 35 3  0.1000  1.3118 13.9002 35.0928
246 35 3  0.1000  2.2439 12.9289 33.8407
247 36 2 -0.2000 40.1338  7.0944  8.1045
248 36 3  0.1000 37.9670  7.9745  8.3902
249 36 3  0.1000 38.7162  8.1247  6.8202
250 37 2 -0.2000 11.1705 34.6303 13.5893
251 37 3  0.1000 12.5504 34.2286 11.8710
252 37 3  0.1000 12.2239 35.9418 12.0336
253 20 2 -0.2000 39.5605 36.3438  1.1868
254 20 3  0.1000 38.5465 35.0458 -0.1772
255 20 3  0.1000 39.5298 34.3374  1.0113
256 21 2 -0.2000 25.7023  4.8580 26.3057
257 21 3  0.1000 27.3321  3.4903 25.8387
258 21 3  0.1000 25.7181  3.2740 24.9887
259 22 2 -0.2000 36.8198 30.1287 29.3595
260 22 3  0.1000 37.9614 32.2076 29.6632
261 22 3  0.1000 36.3060 32.1775 29.3548
262 23 2 -0.2000 35.6410 21.0727  0.3235
263 23 3  0.1000 35.7179 18.9199 -0.4049
264 23 3  0.1000 37.1544 19.4563  0.5741
265 24 2 -0.2000  1.5956 16.9142 44.3077
266 24 3  0.1000  2.4652 15.5676 42.7418
267 24 3  0.1000  0.7759 15.6942 42.6598
268 25 2 -0.2000 35.4769 23.6169 24.6486
269 25 3  0.1000 36.2137 24.6804 22.9037
270 25 3  0.1000 37.5205 23.9873 23.7738
271 26 2 -0.2000 25.7721 29.7849 18.4900
272 26 3  0.1000 27.0275 27.7817 18.1419
273 26 3  0.1000 26.2653 28.1920 19.6075
274 27 2 -0.2000 34.9037 31.2524 24.9245
275 27 3  0.1000 36.5121 32.4573 23.8751
276 27 3  0.1000 35.1117 32.2653 23.0328
277 28 2 -0.2000 -3.5127 29.6194 13.5041
278 28 3  0.1000 -1.6599 28.7021 14.3771
279 28 3  0.1000 -1.5617 29.1136 12.7193
280 29 2 -0.2000  6.5248  2.7971  1.8287
281 29 3  0.1000  7.4066  4.7772  2.3258
282 29 3  0.1000  6.5034  3.9982  3.6304
283 30 2 -0.2000 29.6335 30.4164 17.6836
284 30 3  0.1000 29.3118 28.9224 19.2570
285 30 3  0.1000 31.0456 28.8405 18.4419
286 31 2 -0.2000 29.3161 31.5892 33.6516
287 31 3  0.1000 31.3245 31.0890 32.7663
288 31 3  0.1000 31.3659 32.1288 34.1665
289 32 2 -0.2000 10.6974 15.2320  2.3274
290 32 3  0.1000  9.5356 15.2471  0.2410
291 32 3  0.1000  8.6717 14.6493  1.6742
292 33 2 -0.2000  3.4709 29.9159  8.0345
293 33 3  0.1000  2.9564 28.7985  9.7469
294 33 3  0.1000  4.6344 29.0847  9.4055
295 34 2 -0.2000 15.1577  8.4998 37.9331
296 34 3  0.1000 15.3619  6.4828 37.2406
297 34 3  0.1000 13.8048  6.8102 38.0594
298 35 2 -0.2000  3.6995 15.4433 32.9373
299 35 3  0.1000  1.4967 15.9207 33.6400
300 35 3  0.1000  1.7800 14.6737 32.4860
301 36 2 -0.2000 40.6293  5.6228  7.7582
302 36 3  0.1000 40.4464  7.4085  9.1256
303 36 3  0.1000 40.7096  7.8205  7.4669
304 37 2 -0.2000 10.7602 33.2454 13.0251
305 37 3  0.1000 10.4634 35.4211 13.4880
306 37 3  0.1000 11.4708 34.6784 14.6615
307 20 2 -0.2000 39.7816 36.4593  2.6919
308 20 3  0.1000 39.3373 37.2904  0.7332
309 20 3  0.1000 40.5687 36.2056  0.9010
310 21 2 -0.2000 24.6766  4.0099 27.1325
311 21 3  0.1000 25.3264  5.6888 25.6802
312 21 3  0.1000 26.3997  5.2812 27.0890
313 22 2 -0.2000 35.6530 29.6085 30.1392
314 22 3  0.1000 37.6930 29.4483 29.3390
315 22 3  0.1000 36.4000 30.1270 28.3319
316 23 2 -0.2000 36.7658 22.0967  0.7061
317 23 3  0.1000 34.6974 21.4336  0.6762
318 23 3  0.1000 35.4910 21.2222 -0.7149
319 24 2 -0.2000  2.7960 16.2831 45.1619
320 24 3  0.1000  0.6280 16.9176 44.8598
321 24 3  0.1000  1.8414 18.0169 44.0815
322 25 2 -0.2000 34.5648 24.7936 24.5003
323 25 3  0.1000 35.9211 23.7156 25.6305
324 25 3  0.1000 35.0794 22.6060 24.4339
325 26 2 -0.2000 26.5449 30.5152 19.4971
326 26 3  0.1000 24.7395 29.9508 18.3192
327 26 3  0.1000 26.2537 30.1794 17.5560
328 27 2 -0.2000 33.3720 31.4539 24.6655
329 27 3  0.1000 35.2657 31.1103 26.0245
330 27 3  0.1000 35.1792 30.3260 24.4681
331 28 2 -0.2000 -4.2792 28.3888 13.7464
332 28 3  0.1000 -3.6176 30.0363 12.3946
333 28 3  0.1000 -4.0041 30.4382 14.0664
334 29 2 -0.2000  5.5969  1.6504  2.4669
335 29 3  0.1000  7.2134  2.2627  1.2300
336 29 3  0.1000  5.8588  3.3861  1.0961
337 30 2 -0.2000 29.2164 29.6744 16.4533
338 30 3  0.1000 30.2584 31.2865 17.4489
339 30 3  0.1000 28.7868 30.8514 18.0691
340 31 2 -0.2000 29.2573 32.9166 32.7978
341 31 3  0.1000 28.5947 31.4677 34.4676
342 31 3  0.1000 28.9355 30.8176 32.9410
343 32 2 -0.2000 11.7733 14.1379  2.0667
344 32 3  0.1000 10.4276 15.3875  3.3470
345 32 3  0.1000 11.2577 16.1217  2.0689
346 33 2 -0.2000  2.0846 30.4845  8.0292
347 33 3  0.1000  3.6587 29.0980  7.2806
348 33 3  0.1000  4.3078 30.6908  7.7604
349 34 2 -0.2000 16.2510  9.2060 37.1916
350 34 3  0.1000 15.5499  8.5001 39.0039
351 34 3  0.1000 14.2639  9.2091 38.0460
352 35 2 -0.2000  3.8048 16.4625 31.8558
353 35 3  0.1000  4.4240 14.5103 32.8038
354 35 3  0.1000  3.9801 15.9261 33.8022
355 36 2 -0.2000 42.0522  5.2691  8.4076
356 36 3  0.1000 40.5475  5.2770  6.6989
357 36 3  0.1000 39.8852  5.0453  8.3478
358 37 2 -0.2000 11.9516 32.1892 13.2034
359 37 3  0.1000 10.4416 33.3656 12.0087
360 37 3  0.1000  9.7582 32.9603 13.5762
361 20 2 -0.2000 41.2015 36.4631  3.1704
362 20 3  0.1000 39.0509 35.8255  3.2929
363 20 3  0.1000 39.3505 37.5313  2.9716
364 21 2 -0.2000 25.5949  3.1346 27.8672
365 21 3  0.1000 23.8822  3.5374 26.5310
366 21 3  0.1000 24.1825  4.7534 27.7545
367 22 2 -0.2000 36.0446 28.3855 30.8789
368 22 3  0.1000 34.6760 29.4030 29.5464
369 22 3  0.1000 35.3957 30.4137 30.8560
370 23 2 -0.2000 37.0232 22.0205  2.1905
371 23 3  0.1000 36.5668 23.1186  0.4373
372 23 3  0.1000 37.6592 21.8394  0.1887
373 24 2 -0.2000  2.9693 17.2142 46.3341
374 24 3  0.1000  3.6900 15.7838 44.6761
375 24 3  0.1000  2.2938 15.3147 45.6973
376 25 2 -0.2000 33.2608 24.5481 25.2720
377 25 3  0.1000 34.4996 24.9843 23.4377
378 25 3  0.1000 34.9671 25.6752 25.0584
379 26 2 -0.2000 25.5146 31.1452 20.3746
380 26 3  0.1000 27.3081 31.2269 19.1815
381 26 3  0.1000 27.0554 29.6726 20.0221
382 27 2 -0.2000 32.6951 31.8599 25.9700
383 27 3  0.1000 32.9264 30.5019 24.2970
384 27 3  0.1000 33.2358 32.3081 23.9017
385 28 2 -0.2000 -5.8052 28.6032 13.9779
386 28 3  0.1000 -3.7835 27.7460 14.4727
387 28 3  0.1000 -4.1985 27.8265 12.8296
388 29 2 -0.2000  4.1788  1.3517  1.9469
389 29 3  0.1000  5.7135  1.5668  3.5790
390 29 3  0.1000  6.0988  0.6558  2.1691
391 30 2 -0.2000 28.6781 30.5464 15.2793
392 30 3  0.1000 28.6257 28.7001 16.5682
393 30 3  0.1000 30.1553 29.1991 16.0430
394 31 2 -0.2000 27.8535 33.3796 32.6488
395 31 3  0.1000 29.7472 32.8622 31.7886
396 31 3  0.1000 29.7462 33.7996 33.2397
397 32 2 -0.2000 12.9216 14.4376  3.0431
398 32 3  0.1000 12.1240 13.8771  1.0209
399 32 3  0.1000 11.1186 13.2457  2.3718
400 33 2 -0.2000  1.4443 30.5420  6.6608
401 33 3  0.1000  2.0763 31.5450  8.4131
402 33 3  0.1000  1.4242 29.8176  8.6574
403 34 2 -0.2000 16.6894 10.4853 38.0151
404 34 3  0.1000 16.0794  9.5108 36.0811
405 34 3  0.1000 17.0944  8.4726 37.2724
406 35 2 -0.2000  3.9763 18.0066 32.1601
407 35 3  0.1000  2.9304 16.2996 31.3657
408 35 3  0.1000  4.6283 16.1751 31.1745
409 36 2 -0.2000 42.4975  3.8644  8.0641
410 36 3  0.1000 42.1226  5.4488  9.5278
411 36 3  0.1000 42.7602  5.9369  8.0369
412 37 2 -0.2000 11.5954 30.6602 12.9526
413 37 3  0.1000 12.6145 32.6219 14.0461
414 37 3  0.1000 12.5941 32.3316 12.4914
415 20 3  0.1000 41.2839 36.9332  4.1037
416 20 3  0.1000 41.8966 37.0112  2.4419
417 20 2 -0.2000 41.7227 34.9750  3.1904
418 21 3  0.1000 26.5470  3.6674 28.1100
419 21 3  0.1000 25.8942  2.4185 27.0581
420 21 2 -0.2000 24.7238  2.5152 29.0050
421 22 3  0.1000 37.1549 28.0451 30.7683
422 22 3  0.1000 35.4573 27.5665 30.3725
423 22 2 -0.2000 35.7449 28.3991 32.4709
424 23 3  0.1000 37.4217 21.0391  2.5650
425 23 3  0.1000 35.9800 21.9958  2.4982
426 23 2 -0.2000 37.5983 23.2576  2.5781
427 24 3  0.1000  2.5897 16.7032 47.3484
428 24 3  0.1000  2.4906 18.1690 46.1515
429 24 2 -0.2000  4.4863 17.4849 46.2637
430 25 3  0.1000 33.0862 23.5861 25.6308
431 25 3  0.1000 32.4442 24.8689 24.6032
432 25 2 -0.2000 33.3184 25.3801 26.5448
433 26 3  0.1000 24.9364 30.4972 21.1335
434 26 3  0.1000 24.7869 31.6156 19.7636
435 26 2 -0.2000 26.1650 32.4056 21.0254
436 27 3  0.1000 32.9536 32.9101 26.1731
437 27 3  0.1000 33.1554 31.1893 26.7412
438 27 2 -0.2000 31.1585 31.6446 25.7807
439 28 3  0.1000 -6.2104 29.3547 14.7043
440 28 3  0.1000 -6.1810 27.6601 14.4772
441 28 2 -0.2000 -6.7812 28.5915 12.8171
442 29 3  0.1000  3.9658  0.4881  1.3110
443 29 3  0.1000  4.0447  2.1323  1.1318
444 29 2 -0.2000  2.9568  1.6416  2.7572
445 30 3  0.1000 29.5184 30.6781 14.6084
446 30 3  0.1000 28.3697 31.4995 15.6020
447 30 2 -0.2000 27.5598 30.0295 14.3441
448 31 3  0.1000 27.3955 33.9090 33.5691
449 31 3  0.1000 27.3254 32.4441 32.5967
450 31 2 -0.2000 27.5634 33.9454 31.2221
451 32 3  0.1000 12.8148 13.7174  3.8807
452 32 3  0.1000 12.6909 15.4752  3.4379
453 32 2 -0.2000 14.3715 14.3144  2.6458
454 33 3  0.1000  1.6139 29.6833  5.9771
455 33 3  0.1000  1.9625 31.4112  6.1591
456 33 2 -0.2000 -0.0766 31.0424  6.7081
457 34 3  0.1000 16.1952 10.5831 38.9745
458 34 3  0.1000 16.3714 11.3332 37.3760
459 34 2 -0.2000 18.2297 10.7152 38.0821
460 35 3  0.1000  3.0663 18.4186 32.6693
461 35 3  0.1000  3.9663 18.3728 31.1406
462 35 2 -0.2000  5.2487 18.4433 32.8478
463 36 3  0.1000 42.2866  3.5460  7.0051
464 36 3  0.1000 41.8675  3.1718  8.5766
465 36 2 -0.2000 44.0515  3.5597  8.2843
466 37 3  0.1000 11.1709 30.3396 13.9009
467 37 3  0.1000 12.5241 30.0854 12.9854
468 37 2 -0.2000 10.9802 30.3493 11.5517
469 20 2 -0.2000 43.1275 35.1994  3.6530
470 20 3  0.1000 41.5174 34.5106  2.2736
471 20 3  0.1000 41.0971 34.4496  3.9175
472 21 2 -0.2000 25.1107  3.0588 30.4279
473 21 3  0.1000 25.0636  1.4565 29.1442
474 21 3  0.1000 23.6114  2.7042 28.8849
475 22 2 -0.2000 37.0007 28.5758 33.2638
476 22 3  0.1000 35.1314 27.4476 32.7514
477 22 3  0.1000 35.0593 29.2987 32.7919
478 23 2 -0.2000 36.7998 23.7643  3.7327
479 23 3  0.1000 37.8166 24.0127  1.7738
480 23 3  0.1000 38.5968 22.9231  3.0340
481 24 2 -0.2000  4.7700 18.2764 47.6525
482 24 3  0.1000  4.8638 17.8796 45.3052
483 24 3  0.1000  4.9102 16.3491 46.3989
484 25 2 -0.2000 31.8864 25.3484 27.2065
485 25 3  0.1000 33.8184 26.3417 26.3616
486 25 3  0.1000 33.9649 24.9497 27.2321
487 26 2 -0.2000 26.9685 32.1061 22.2647
488 26 3  0.1000 25.4851 33.2639 21.2060
489 26 3  0.1000 26.8369 32.7804 20.2045
490 27 2 -0.2000 30.3301 30.5403 26.4219
491 27 3  0.1000 31.0058 31.7269 24.6268
492 27 3  0.1000 30.7083 32.5868 26.1081
493 28 2 -0.2000 -7.2017 27.1318 12.4873
494 28 3  0.1000 -6.2789 29.1171 11.9071
495 28 3  0.1000 -7.7490 29.2186 13.1266
496 29 2 -0.2000  2.1961  0.3603  3.1564
497 29 3  0.1000  2.2118  2.3860  2.2518
498 29 3  0.1000  3.2728  2.1398  3.6958
499 30 2 -0.2000 28.0778 30.1818 12.9340
500 30 3  0.1000 26.5274 30.6217 14.5443
501 30 3  0.1000 27.3221 29.0377 14.5925
502 31 2 -0.2000 28.5518 34.9958 30.8612
503 31 3  0.1000 26.5374 34.3200 31.1279
504 31 3  0.1000 27.7823 33.1558 30.4592
505 32 2 -0.2000 15.1091 13.0458  2.5503
506 32 3  0.1000 14.9635 15.1099  2.9697
507 32 3  0.1000 14.4110 14.5966  1.5194
508 33 2 -0.2000 -1.0247 29.9169  6.3418
509 33 3  0.1000 -0.5452 31.9974  6.3984
510 33 3  0.1000 -0.2579 31.1509  7.8191
511 34 2 -0.2000 18.7529 10.2188 39.4548
512 34 3  0.1000 18.5789 11.7409 37.9405
513 34 3  0.1000 18.6507 10.1892 37.3111
514 35 2 -0.2000  5.2463 19.7579 33.7244
515 35 3  0.1000  6.2146 18.4039 32.2382
516 35 3  0.1000  5.3799 17.7230 33.5476
517 36 2 -0.2000 44.2740  2.0936  8.0758
518 36 3  0.1000 44.3625  4.0531  9.3193
519 36 3  0.1000 44.6200  4.0863  7.5935
520 37 2 -0.2000 11.9098 29.4405 10.8129
521 37 3  0.1000 10.4966 31.2521 11.0259
522 37 3  0.1000 10.0798 29.7855 11.7743
523 20 2 -0.2000 43.9297 34.6022  2.5147
524 20 3  0.1000 43.3359 34.8215  4.6446
525 20 3  0.1000 43.3642 36.2241  3.6682
526 21 2 -0.2000 24.5334  4.5239 30.5748
527 21 3  0.1000 26.2056  3.0259 30.4575
528 21 3  0.1000 24.5862  2.3914 31.2136
529 22 2 -0.2000 37.6981 27.2383 33.6030
530 22 3  0.1000 36.8555 29.1395 34.2095
531 22 3  0.1000 37.7139 29.2553 32.7790
532 23 2 -0.2000 37.2829 23.3901  5.1921
533 23 3  0.1000 35.7323 23.5465  3.4809
534 23 3  0.1000 36.8759 24.7893  3.6666
535 24 2 -0.2000  4.9150 17.2127 48.7240
536 24 3  0.1000  4.0926 19.1324 47.8779
537 24 3  0.1000  5.6780 18.7359 47.5753
538 25 2 -0.2000 31.2757 26.6456 27.5725
539 25 3  0.1000 31.9173 24.6080 28.0583
540 25 3  0.1000 31.1938 24.9604 26.4378
541 26 2 -0.2000 26.5063 33.1918 23.2206
542 26 3  0.1000 28.0615 32.1666 22.4430
543 26 3  0.1000 26.6090 31.1970 22.6134
544 27 2 -0.2000 28.8472 30.9201 26.1419
545 27 3  0.1000 30.4875 30.3962 27.5210
546 27 3  0.1000 30.5697 29.5949 25.7969
547 28 2 -0.2000 -6.2332 26.4912 11.5257
548 28 3  0.1000 -8.2234 26.9484 12.2096
549 28 3  0.1000 -7.2044 26.5048 13.4297
550 29 2 -0.2000  0.8638  0.1781  2.3580
551 29 3  0.1000  2.2620  0.3254  4.2577
552 29 3  0.1000  2.7961 -0.5154  2.8351
553 30 2 -0.2000 27.1385 29.4165 11.9379
554 30 3  0.1000 29.1323 29.8749 12.7825
555 30 3  0.1000 27.9888 31.3247 12.7775
556 31 2 -0.2000 28.3706 35.3438 29.3992
557 31 3  0.1000 29.6491 34.8903 31.1913
558 31 3  0.1000 28.3261 35.9270 31.4315
559 32 2 -0.2000 15.9037 13.0239  3.8657
560 32 3  0.1000 15.5621 12.8916  1.5505
561 32 3  0.1000 14.3740 12.2220  2.6062
562 33 2 -0.2000 -1.5609 30.1913  4.9711
563 33 3  0.1000 -1.8127 29.6869  7.1190
564 33 3  0.1000 -0.4705 28.9978  6.2537
565 34 2 -0.2000 19.4045 11.4489 40.1546
566 34 3  0.1000 19.2991  9.2889 39.4202
567 34 3  0.1000 17.8876  9.9889 39.9820
568 35 2 -0.2000  4.7229 20.8715 32.7923
569 35 3  0.1000  6.3034 20.0721 34.1827
570 35 3  0.1000  4.4442 19.5726 34.5210
571 36 2 -0.2000 45.7583  1.6835  8.2856
572 36 3  0.1000 43.6963  1.7365  7.1411
573 36 3  0.1000 43.7541  1.6204  8.8705
574 37 2 -0.2000 11.4266 28.0169 11.1354
575 37 3  0.1000 12.9878 29.6317 11.0491
576 37 3  0.1000 11.7962 29.5324  9.7256
577 20 2 -0.2000 45.3330 34.6446  3.2499
578 20 3  0.1000 44.0235 35.0528  1.4974
579 20 3  0.1000 43.7016 33.5459  2.4088
580 21 2 -0.2000 25.4385  5.3093 31.5941
581 21 3  0.1000 23.5597  4.4474 31.0131
582 21 3  0.1000 24.5148  5.0204 29.6351
583 22 2 -0.2000 37.0808 26.4957 34.8158
584 22 3  0.1000 38.8665 27.1027 33.5849
585 22 3  0.1000 37.2757 26.5884 32.8229
586 23 2 -0.2000 36.3224 22.6435  6.0996
587 23 3  0.1000 37.6954 24.2745  5.7195
588 23 3  0.1000 38.1323 22.7208  5.1182
589 24 2 -0.2000  5.1874 17.9568 50.0474
590 24 3  0.1000  5.6473 16.4374 48.5078
591 24 3  0.1000  3.9101 16.6683 48.9168
592 25 2 -0.2000 29.7496 26.4726 27.8818
593 25 3  0.1000 31.3112 27.3832 26.7255
594 25 3  0.1000 31.8805 27.0853 28.4056
595 26 2 -0.2000 26.9460 34.5411 22.7777
596 26 3  0.1000 26.8967 32.8787 24.2005
597 26 3  0.1000 25.4099 33.1845 23.2096
598 27 2 -0.2000 28.2729 32.1129 26.7382
599 27 3  0.1000 28.1020 30.1352 25.9318
600 27 3  0.1000 28.8958 31.2622 25.1497
601 28 2 -0.2000 -5.7331 25.2980 12.4537
602 28 3  0.1000 -5.4431 27.2611 11.0955
603 28 3  0.1000 -6.8178 26.0078 10.7022
604 29 2 -0.2000 -0.3888  0.7108  3.1033
605 29 3  0.1000  0.6701 -0.8497  1.8733
606 29 3  0.1000  1.0005  0.8083  1.4705
607 30 2 -0.2000 27.7992 28.0255 11.6174
608 30 3  0.1000 26.6096 30.1267 11.1085
609 30 3  0.1000 26.2513 29.1171 12.4319
610 31 2 -0.2000 29.3668 36.3775 28.9208
611 31 3  0.1000 27.3775 35.6528 29.3046
612 31 3  0.1000 28.4623 34.3623 28.9389
613 32 2 -0.2000 15.1455 12.3208  4.9428
614 32 3  0.1000 16.3230 14.0658  4.0896
615 32 3  0.1000 16.7559 12.5175  3.6904
616 33 2 -0.2000 -2.4063 29.0038  4.8376
617 33 3  0.1000 -0.8895 30.5471  4.1592
618 33 3  0.1000 -2.2275 31.0994  5.1162
619 34 2 -0.2000 20.8474 11.3647 39.7481
620 34 3  0.1000 19.2280 11.4869 41.2755
621 34 3  0.1000 18.8518 12.3333 39.7435
622 35 2 -0.2000  3.8693 21.9308 33.3917
623 35 3  0.1000  4.6250 20.5083 31.7505
624 35 3  0.1000  5.6878 21.4944 32.5993
625 36 2 -0.2000 46.7964  2.7757  8.1675
626 36 3  0.1000 45.9915  0.7713  7.7300
627 36 3  0.1000 45.8556  1.3449  9.3341
628 37 2 -0.2000 12.0901 26.7839 10.3373
629 37 3  0.1000 10.2903 28.1283 10.9249
630 37 3  0.1000 11.4655 27.7872 12.2232
631 20 2 -0.2000 45.9473 36.1108  3.4263
632 20 3  0.1000 46.0728 33.9606  2.8149
633 20 3  0.1000 45.2515 34.1610  4.2184
634 21 2 -0.2000 25.1649  6.7959 31.6543
635 21 3  0.1000 26.4203  5.0104 31.6761
636 21 3  0.1000 25.0985  4.9684 32.6127
637 22 2 -0.2000 38.0928 25.9131 35.8824
638 22 3  0.1000 36.2598 25.8709 34.5636
639 22 3  0.1000 36.6221 27.3131 35.4502
640 23 2 -0.2000 35.8001 23.0781  7.4337
641 23 3  0.1000 36.4371 21.5763  6.0861
642 23 3  0.1000 35.4195 22.6966  5.4755
643 24 2 -0.2000  6.6967 18.2640 50.0179
644 24 3  0.1000  4.7730 17.4705 50.9993
645 24 3  0.1000  4.6899 18.9631 50.0358
646 25 2 -0.2000 29.1229 25.1292 28.1219
647 25 3  0.1000 29.2406 27.3155 27.3405
648 25 3  0.1000 29.6531 26.8943 28.8811
649 26 2 -0.2000 27.6800 35.0182 24.1411
650 26 3  0.1000 26.2166 35.2474 22.2730
651 26 3  0.1000 27.6882 34.3353 21.9632
652 27 2 -0.2000 27.3676 31.7477 27.9350
653 27 3  0.1000 27.6923 32.6278 25.9889
654 27 3  0.1000 29.0128 32.7517 27.1671
655 28 2 -0.2000 -6.2331 23.8646 12.0831
656 28 3  0.1000 -5.7014 25.3924 13.5601
657 28 3  0.1000 -4.6473 25.2393 12.0850
658 29 2 -0.2000 -1.4062  1.2877  2.0517
659 29 3  0.1000 -0.3454  1.4704  3.9012
660 29 3  0.1000 -0.8811 -0.1069  3.7078
661 30 2 -0.2000 28.0567 28.0748 10.1294
662 30 3  0.1000 27.2493 27.0707 11.9178
663 30 3  0.1000 28.7826 27.9168 12.1133
664 31 2 -0.2000 30.7937 35.8465 28.7793
665 31 3  0.1000 29.1959 37.3961 29.3413
666 31 3  0.1000 28.9541 36.4662 27.8856
667 32 2 -0.2000 15.5645 12.6041  6.4234
668 32 3  0.1000 14.9771 11.2415  4.8449
669 32 3  0.1000 14.2133 12.7314  4.7525
670 33 2 -0.2000 -3.2488 29.0973  3.6015
671 33 3  0.1000 -2.9275 28.7575  5.7313
672 33 3  0.1000 -1.6556 28.1828  4.6190
673 34 2 -0.2000 21.8877 12.3634 40.2967
674 34 3  0.1000 20.9975 11.1740 38.6946
675 34 3  0.1000 21.2532 10.4555 40.1102
676 35 2 -0.2000  2.3652 21.8864 33.0204
677 35 3  0.1000  4.3615 22.9296 33.3304
678 35 3  0.1000  3.9127 21.6093 34.4025
679 36 2 -0.2000 46.8810  3.5588  9.4573
680 36 3  0.1000 46.7431  3.2983  7.2184
681 36 3  0.1000 47.8098  2.2122  8.2684
682 37 2 -0.2000 12.1921 25.3834 11.0173
683 37 3  0.1000 12.9853 26.9452  9.8939
684 37 3  0.1000 11.3690 26.6527  9.5611
685 20 2 -0.2000 47.0565 36.3589  2.3881
686 20 3  0.1000 46.2414 36.3510  4.5108
687 20 3  0.1000 45.1630 36.8577  3.2859
688 21 2 -0.2000 26.4802  7.5049 31.9960
689 21 3  0.1000 24.3077  7.0717 32.3167
690 21 3  0.1000 24.8727  7.1439 30.6323
691 22 2 -0.2000 37.2221 25.2793 36.9241
692 22 3  0.1000 38.8101 26.4533 36.2454
693 22 3  0.1000 38.6711 25.1103 35.3229
694 23 2 -0.2000 34.7418 24.1457  7.2438
695 23 3  0.1000 36.5994 23.4846  8.0045
696 23 3  0.1000 35.3437 22.2865  8.0698
697 24 2 -0.2000  7.1583 18.6991 51.4619
698 24 3  0.1000  6.9033 19.0052 49.2574
699 24 3  0.1000  7.3109 17.3701 49.8015
700 25 2 -0.2000 29.5121 24.5585 29.4732
701 25 3  0.1000 29.0001 24.3540 27.2752
702 25 3  0.1000 28.0734 25.3915 28.2540
703 26 2 -0.2000 27.3946 36.4555 24.3568
704 26 3  0.1000 28.7527 34.8857 24.2671
705 26 3  0.1000 27.1479 34.4940 24.8703
706 27 2 -0.2000 25.8527 31.7134 27.4789
707 27 3  0.1000 27.5079 32.4860 28.7269
708 27 3  0.1000 27.7292 30.7558 28.2917
709 28 2 -0.2000 -6.7442 23.1418 13.2621
710 28 3  0.1000 -5.6041 23.0374 11.6349
711 28 3  0.1000 -7.0011 24.0251 11.3393
712 29 2 -0.2000 -2.7780  0.9510  2.5934
713 29 3  0.1000 -1.3164  0.9884  0.9922