LAMMPS DATA FILE

4032 atoms 
 4014 bonds 
 7992 angles 
 11826 dihedrals 
 0 impropers 

 3 atom types 
 4 bond types 
 7 angle types 
 8 dihedral types 
 0 improper types 

0.00000  40.0000  xlo xhi
0.00000  40.0000  ylo yhi
0.00000  40.0000  zlo zhi

Masses

1  12.01115   # c3 
2  12.01115   # c2
3  1.00797    # h

Pair Coeffs

1  0.03900   3.87541
2  0.03900   3.87541
3  0.03800   2.44997

Bond Coeffs

1 322.715800 1.526000 
2 340.617500 1.105000 
3 322.715800 1.526000 
4 340.617500 1.105000 

Angle Coeffs

1 46.600000 110.500000 
2 46.600000 110.500000 
3 44.400000 110.000000 
4 39.500000 106.400000 
5 44.400000 110.000000 
6 44.400000 110.000000 
7 39.500000 106.400000 

Dihedral Coeffs

1 0.158100 1 3 
2 0.158100 1 3 
3 0.158100 1 3 
4 0.158100 1 3 
5 0.158100 1 3 
6 0.158100 1 3 
7 0.158100 1 3 
8 0.158100 1 3 

Atoms

1 0 1 -0.3000 33.5732 37.0579 11.0218
2 0 2 -0.2000 35.0868 36.8830 10.8918
3 0 3  0.1000 33.1281 36.0501 11.2913
4 0 3  0.1000 33.1322 37.5317 10.1333
5 0 3  0.1000 33.4650 37.6768 11.8669
6 0 2 -0.2000 35.6549 37.9268 10.0014
7 0 3  0.1000 35.6672 36.7826 11.8538
8 0 3  0.1000 35.3880 35.9228 10.3352
9 0 2 -0.2000 36.1217 37.1962  8.7476
10 0 3  0.1000 36.5381 38.4719 10.2971
11 0 3  0.1000 34.7764 38.6257  9.8342
12 1 1 -0.3000  3.9013 14.5950 24.3247
13 1 2 -0.2000  3.6890 15.4705 23.1319
14 1 3  0.1000  4.8400 14.0143 24.4250
15 1 3  0.1000  3.1282 13.8548 24.2121
16 1 3  0.1000  3.7771 15.1125 25.2249
17 1 2 -0.2000  3.8263 14.5988 21.9104
18 1 3  0.1000  2.5722 15.9273 23.0765
19 1 3  0.1000  4.3469 16.3471 23.2460
20 1 2 -0.2000  2.7586 13.5760 21.5511
21 1 3  0.1000  4.7299 14.0869 21.9176
22 1 3  0.1000  3.9248 15.1865 20.9550
23 2 1 -0.3000 39.1387 31.3446 32.6276
24 2 2 -0.2000 40.0072 30.0625 32.6257
25 2 3  0.1000 38.1497 30.9924 32.4948
26 2 3  0.1000 39.3563 32.3342 32.0818
27 2 3  0.1000 39.1421 31.5704 33.6909
28 2 2 -0.2000 41.1761 30.6584 33.4120
29 2 3  0.1000 39.6195 29.1638 33.0109
30 2 3  0.1000 40.3583 29.9067 31.6137
31 2 2 -0.2000 40.9162 30.4868 34.9044
32 2 3  0.1000 41.7101 31.4392 33.0728
33 2 3  0.1000 41.9445 29.8534 33.1938
34 3 1 -0.3000 30.6730  1.4096  8.2605
35 3 2 -0.2000 29.3996  1.1631  9.0369
36 3 3  0.1000 31.4514  1.6619  8.8967
37 3 3  0.1000 30.5792  2.0926  7.4282
38 3 3  0.1000 31.1113  0.5185  7.7507
39 3 2 -0.2000 28.2066  0.4843  8.3959
40 3 3  0.1000 29.5423  0.5227  9.9483
41 3 3  0.1000 29.0661  2.0866  9.5217
42 3 2 -0.2000 28.0646 -0.9561  8.9902
43 3 3  0.1000 28.3111  0.6538  7.3464
44 3 3  0.1000 27.2419  1.0677  8.6202
45 4 1 -0.3000 29.8360 28.2909 16.3295
46 4 2 -0.2000 30.2759 26.9176 16.8087
47 4 3  0.1000 28.8541 28.5430 16.5765
48 4 3  0.1000 30.1568 28.5951 15.2769
49 4 3  0.1000 30.3408 29.1175 16.9011
50 4 2 -0.2000 31.1632 26.3222 15.7060
51 4 3  0.1000 30.6296 26.8052 17.8420
52 4 3  0.1000 29.3579 26.3197 16.8079
53 4 2 -0.2000 32.5613 26.8075 15.8346
54 4 3  0.1000 30.7435 26.5720 14.6968
55 4 3  0.1000 31.2185 25.2302 15.7303
56 5 1 -0.3000  1.2528 14.5095 12.4965
57 5 2 -0.2000 -0.1541 14.0244 12.0250
58 5 3  0.1000  1.2313 15.4619 13.0462
59 5 3  0.1000  1.8990 14.3370 11.6383
60 5 3  0.1000  1.6180 13.8316 13.3409
61 5 2 -0.2000 -1.3278 14.1997 13.0368
62 5 3  0.1000 -0.4957 14.4687 11.1218
63 5 3  0.1000 -0.1100 12.9245 11.8147
64 5 2 -0.2000 -0.8343 14.7503 14.4290
65 5 3  0.1000 -2.0300 13.3507 12.9589
66 5 3  0.1000 -1.8363 15.0296 12.7352
67 6 1 -0.3000 30.8082 10.4190 20.3147
68 6 2 -0.2000 29.8693  9.9975 19.1542
69 6 3  0.1000 30.3770  9.9654 21.2704
70 6 3  0.1000 31.0899 11.4839 20.4579
71 6 3  0.1000 31.8213  9.9063 20.2436
72 6 2 -0.2000 28.5717 10.6917 18.8604
73 6 3  0.1000 30.3938  9.8262 18.2544
74 6 3  0.1000 29.6806  9.0284 19.5251
75 6 2 -0.2000 27.6769  9.7541 18.1422
76 6 3  0.1000 28.5865 11.6693 18.5196
77 6 3  0.1000 28.1727 10.8460 19.8362
78 7 1 -0.3000  3.2225 23.8419 32.0690
79 7 2 -0.2000  1.9014 24.6794 31.8516
80 7 3  0.1000  3.7444 23.4605 31.1099
81 7 3  0.1000  3.1378 23.0341 32.6801
82 7 3  0.1000  3.9877 24.5750 32.4801
83 7 2 -0.2000  1.1996 25.3424 33.0001
84 7 3  0.1000  2.0950 25.3363 30.9418
85 7 3  0.1000  1.1515 23.9507 31.4252
86 7 2 -0.2000  0.8781 24.3113 34.1032
87 7 3  0.1000  0.2971 25.9169 32.6708
88 7 3  0.1000  1.9536 25.9846 33.4962
89 8 1 -0.3000 15.8395 24.3200  2.1429
90 8 2 -0.2000 17.2259 23.8647  1.7479
91 8 3  0.1000 15.0862 24.2719  1.3576
92 8 3  0.1000 15.6744 25.3300  2.7336
93 8 3  0.1000 15.3976 23.7180  2.9632
94 8 2 -0.2000 17.8384 23.1728  3.0227
95 8 3  0.1000 17.3432 23.1926  0.8323
96 8 3  0.1000 17.7830 24.7514  1.4938
97 8 2 -0.2000 18.2891 24.3152  3.8387
98 8 3  0.1000 18.6789 22.3688  2.8449
99 8 3  0.1000 17.0177 22.5245  3.4595
100 9 1 -0.3000  0.9498  4.5580 35.6177
101 9 2 -0.2000  0.7823  4.2674 37.1031
102 9 3  0.1000  1.9344  4.2266 35.3038
103 9 3  0.1000  0.7412  5.6654 35.4020
104 9 3  0.1000  0.1636  4.0361 35.0822
105 9 2 -0.2000 -0.3022  3.2350 37.2452
106 9 3  0.1000  1.7861  4.0610 37.5309
107 9 3  0.1000  0.3730  5.2139 37.6297
108 9 2 -0.2000  0.2222  2.1111 38.1506
109 9 3  0.1000 -0.7885  2.8141 36.4035
110 9 3  0.1000 -1.1129  3.7896 37.7227
111 10 1 -0.3000  8.6314 34.2595 31.5094
112 10 2 -0.2000  8.0433 35.3524 30.6283
113 10 3  0.1000  8.0723 33.3163 31.1504
114 10 3  0.1000  8.5387 34.3173 32.6664
115 10 3  0.1000  9.6247 34.2083 31.2609
116 10 2 -0.2000  8.3025 36.7227 31.2874
117 10 3  0.1000  8.1525 35.3793 29.5649
118 10 3  0.1000  6.9186 35.2118 30.7952
119 10 2 -0.2000  8.5513 37.5529 29.9754
120 10 3  0.1000  9.1299 36.7276 31.9673
121 10 3  0.1000  7.4306 37.1592 31.8754
122 11 1 -0.3000 17.6049 29.5719  3.6211
123 11 2 -0.2000 17.9263 30.3162  2.3131
124 11 3  0.1000 18.1938 28.6605  3.8943
125 11 3  0.1000 16.5824 29.3784  3.8495
126 11 3  0.1000 17.8688 30.1985  4.4263
127 11 2 -0.2000 19.4291 30.5915  2.0802
128 11 3  0.1000 17.5669 29.7627  1.4034
129 11 3  0.1000 17.5565 31.3093  2.1043
130 11 2 -0.2000 19.7759 32.0095  2.2843
131 11 3  0.1000 19.9038 30.3532  1.1246
132 11 3  0.1000 19.8614 29.9529  2.9065
133 12 1 -0.3000 37.4096  8.5082 34.1226
134 12 2 -0.2000 36.7941  9.8393 33.4288
135 12 3  0.1000 36.4891  8.0630 34.6042
136 12 3  0.1000 38.1655  8.7553 34.7345
137 12 3  0.1000 37.7287  7.6774 33.3987
138 12 2 -0.2000 35.6314  9.6938 32.5166
139 12 3  0.1000 36.6766 10.6096 34.1980
140 12 3  0.1000 37.6882 10.1880 32.9396
141 12 2 -0.2000 35.1060 10.9509 31.8661
142 12 3  0.1000 34.8272  8.8643 32.5135
143 12 3  0.1000 36.2046  9.2979 31.6435
144 13 1 -0.3000 33.2790 24.4551 31.8932
145 13 2 -0.2000 34.0733 25.6135 31.2789
146 13 3  0.1000 32.7218 24.8620 32.8386
147 13 3  0.1000 33.9889 23.6562 32.2241
148 13 3  0.1000 32.5103 24.1894 31.2432
149 13 2 -0.2000 34.2424 25.0924 29.8634
150 13 3  0.1000 33.5865 26.5326 31.4612
151 13 3  0.1000 35.0704 25.6212 31.7536
152 13 2 -0.2000 35.5769 25.8148 29.3458
153 13 3  0.1000 33.3635 25.1132 29.2196
154 13 3  0.1000 34.5007 24.0044 29.8336
155 14 1 -0.3000 38.0666 14.4409 24.0241
156 14 2 -0.2000 39.4922 14.6634 24.4044
157 14 3  0.1000 37.5094 15.3896 24.3563
158 14 3  0.1000 37.5971 13.6869 24.6984
159 14 3  0.1000 37.8537 14.1580 22.8865
160 14 2 -0.2000 39.6120 16.0774 25.0373
161 14 3  0.1000 40.0143 13.9806 25.1281
162 14 3  0.1000 40.0703 14.6365 23.4958
163 14 2 -0.2000 39.1012 17.0204 24.0503
164 14 3  0.1000 40.6016 16.1770 25.4096
165 14 3  0.1000 39.0199 16.2794 25.9833
166 15 1 -0.3000 32.8371 38.6437 35.1214
167 15 2 -0.2000 33.7723 39.5631 35.8094
168 15 3  0.1000 32.3833 37.9050 35.8390
169 15 3  0.1000 33.3197 38.1073 34.2825
170 15 3  0.1000 32.0258 39.2781 34.7524
171 15 2 -0.2000 33.1791 40.5863 36.7446
172 15 3  0.1000 34.7971 39.1616 36.2504
173 15 3  0.1000 34.1006 40.1519 35.0120
174 15 2 -0.2000 32.9687 41.9851 36.2062
175 15 3  0.1000 33.6881 40.6554 37.6893
176 15 3  0.1000 32.1526 40.1190 36.9943
177 16 1 -0.3000 34.3535 30.8459  4.4997
178 16 2 -0.2000 34.6277 30.6101  3.0484
179 16 3  0.1000 33.7609 31.8131  4.5020
180 16 3  0.1000 35.3180 31.0260  4.9287
181 16 3  0.1000 33.8073 29.9841  4.9601
182 16 2 -0.2000 35.6074 29.3305  2.9004
183 16 3  0.1000 33.7634 30.7164  2.3556
184 16 3  0.1000 35.2157 31.3721  2.7104
185 16 2 -0.2000 34.7952 28.0746  3.0078
186 16 3  0.1000 36.4203 29.3920  3.5025
187 16 3  0.1000 36.0848 29.2958  1.8906
188 17 1 -0.3000 32.6140 33.2027 29.0769
189 17 2 -0.2000 31.2258 33.8058 29.0263
190 17 3  0.1000 32.5283 32.0502 28.9170
191 17 3  0.1000 33.0692 33.1437 30.1306
192 17 3  0.1000 33.4760 33.5759 28.4108
193 17 2 -0.2000 31.6678 35.2690 29.1019
194 17 3  0.1000 30.6662 33.5376 28.0567
195 17 3  0.1000 30.7069 33.6299 30.0313
196 17 2 -0.2000 31.5661 35.9650 30.4900
197 17 3  0.1000 31.5101 35.9660 28.2398
198 17 3  0.1000 32.8077 35.1636 28.9971
199 0 2 -0.2000 36.2006 37.9332  7.4507
200 0 3  0.1000 35.4918 36.4060  8.4762
201 0 3  0.1000 37.1168 36.8097  8.9754
202 1 2 -0.2000  1.5588 14.4248 21.0959
203 1 3  0.1000  2.6949 12.8188 22.3045
204 1 3  0.1000  3.1016 13.0730 20.6575
205 2 2 -0.2000 42.1341 29.9518 35.5830
206 2 3  0.1000 39.9359 29.8301 35.0173
207 2 3  0.1000 40.6986 31.4690 35.3796
208 3 2 -0.2000 26.6595 -1.4494  9.3335
209 3 3  0.1000 28.9068 -1.1753  9.6830
210 3 3  0.1000 28.4481 -1.6538  8.1495
211 4 2 -0.2000 33.6532 25.8799 16.3891
212 4 3  0.1000 32.4809 27.7575 16.3534
213 4 3  0.1000 32.8822 27.1517 14.8144
214 5 2 -0.2000 -2.1008 15.1132 15.2013
215 5 3  0.1000  0.0980 15.3881 14.5768
216 5 3  0.1000 -0.5632 13.8314 14.9173
217 6 2 -0.2000 27.8112 10.2955 16.6818
218 6 3  0.1000 26.5820  9.7361 18.6215
219 6 3  0.1000 28.0722  8.7502 18.1986
220 7 2 -0.2000 -0.5971 23.9960 33.9811
221 7 3  0.1000  1.1437 24.7397 35.0864
222 7 3  0.1000  1.2815 23.3040 34.0434
223 8 2 -0.2000 19.6994 24.6647  3.2971
224 8 3  0.1000 18.1544 24.0212  4.8954
225 8 3  0.1000 17.6607 25.2323  3.7333
226 9 2 -0.2000  0.9943  0.8365 37.5689
227 9 3  0.1000 -0.4572  1.9190 38.9697
228 9 3  0.1000  1.0385  2.6173 38.7287
229 10 2 -0.2000  7.3824 38.1430 29.0900
230 10 3  0.1000  9.2761 37.0874 29.3504
231 10 3  0.1000  9.1142 38.4288 30.3790
232 11 2 -0.2000 20.7491 32.3535  3.5039
233 11 3  0.1000 18.8466 32.6107  2.0619
234 11 3  0.1000 20.4199 32.3191  1.3280
235 12 2 -0.2000 35.5401 12.3761 32.3304
236 12 3  0.1000 34.0497 10.8510 31.6209
237 12 3  0.1000 35.5495 10.9033 30.8760
238 13 2 -0.2000 36.7218 24.8467 29.7405
239 13 3  0.1000 35.5934 26.8830 29.6531
240 13 3  0.1000 35.6069 25.9318 28.2155
241 14 2 -0.2000 40.0985 18.2653 24.0054
242 14 3  0.1000 38.0319 17.3768 24.1641
243 14 3  0.1000 39.0322 16.4828 23.0322
244 15 2 -0.2000 31.5662 42.0638 35.5907
245 15 3  0.1000 33.7853 42.4857 35.5831
246 15 3  0.1000 32.9768 42.6925 37.0296
247 16 2 -0.2000 33.8979 28.0022  1.7762
248 16 3  0.1000 34.0884 28.1189  3.8271
249 16 3  0.1000 35.3557 27.0515  3.1451
250 17 2 -0.2000 32.5358 35.4964 31.5736
251 17 3  0.1000 30.5545 35.8925 30.9441
252 17 3  0.1000 31.7195 37.0363 30.3328
253 0 2 -0.2000 37.3512 37.4390  6.5568
254 0 3  0.1000 36.1675 39.0871  7.5705
255 0 3  0.1000 35.2927 37.6799  6.7996
256 1 2 -0.2000  1.9262 14.7896 19.6523
257 1 3  0.1000  1.3845 15.2436 21.8033
258 1 3  0.1000  0.6173 13.7712 21.1369
259 2 2 -0.2000 41.7891 28.5257 36.0493
260 2 3  0.1000 42.5766 30.6227 36.4665
261 2 3  0.1000 43.0243 29.8626 34.8055
262 3 2 -0.2000 26.2869 -2.7711  9.7773
263 3 3  0.1000 25.9146 -0.9597  8.5159
264 3 3  0.1000 26.3798 -0.8688 10.2311
265 4 2 -0.2000 34.8684 26.5609 17.1282
266 4 3  0.1000 33.7856 25.0693 15.6595
267 4 3  0.1000 33.1535 25.2858 17.2106
268 5 2 -0.2000 -3.2386 14.0290 15.4826
269 5 3  0.1000 -2.4592 16.1208 14.8787
270 5 3  0.1000 -1.6526 15.2479 16.1667
271 6 2 -0.2000 29.2556 10.5860 16.1632
272 6 3  0.1000 27.2392 11.2291 16.5067
273 6 3  0.1000 27.3567  9.5747 16.0267
274 7 2 -0.2000 -1.3899 24.9948 34.7308
275 7 3  0.1000 -0.7820 22.9260 34.1217
276 7 3  0.1000 -0.8165 24.1102 32.8979
277 8 2 -0.2000 20.5609 25.7747  3.8710
278 8 3  0.1000 19.6334 24.7554  2.2242
279 8 3  0.1000 20.2043 23.7242  3.4405
280 9 2 -0.2000  1.5890 -0.0390 38.6952
281 9 3  0.1000  1.5223  1.0221 36.6397
282 9 3  0.1000  0.1920  0.2281 37.1065
283 10 2 -0.2000  7.3288 37.9408 27.5654
284 10 3  0.1000  7.1906 39.2176 29.3952
285 10 3  0.1000  6.4592 37.7078 29.4916
286 11 2 -0.2000 21.0592 33.7913  3.9613
287 11 3  0.1000 21.7793 31.8702  3.4456
288 11 3  0.1000 20.2342 31.8042  4.4537
289 12 2 -0.2000 35.1784 13.5046 31.2698
290 12 3  0.1000 36.5411 12.3933 32.8336
291 12 3  0.1000 34.8991 12.6713 33.0655
292 13 2 -0.2000 37.4417 24.2250 28.4590
293 13 3  0.1000 36.3486 24.1559 30.5232
294 13 3  0.1000 37.4016 25.3929 30.2784
295 14 2 -0.2000 39.7935 19.3963 23.0592
296 14 3  0.1000 41.1703 17.9737 23.7968
297 14 3  0.1000 40.1731 18.5735 25.0737
298 15 2 -0.2000 30.7225 43.2805 36.0370
299 15 3  0.1000 31.2338 41.0900 35.6417
300 15 3  0.1000 31.7391 42.2363 34.5469
301 16 2 -0.2000 33.1919 26.6087  1.6166
302 16 3  0.1000 34.2913 28.5920  0.9445
303 16 3  0.1000 33.0431 28.7121  2.1020
304 17 2 -0.2000 32.2009 35.5266 33.1281
305 17 3  0.1000 33.5922 36.0077 31.4328
306 17 3  0.1000 32.7007 34.4391 31.3895
307 0 2 -0.2000 36.9546 37.4767  5.0016
308 0 3  0.1000 37.7038 36.4221  6.9400
309 0 3  0.1000 38.1726 38.2448  6.6710
310 1 2 -0.2000  1.7605 16.2440 19.6494
311 1 3  0.1000  1.3219 14.2748 18.8312
312 1 3  0.1000  2.9868 14.5183 19.4877
313 2 2 -0.2000 40.6674 28.5039 37.1467
314 2 3  0.1000 42.6923 28.0533 36.4513
315 2 3  0.1000 41.4948 27.9376 35.2214
316 3 2 -0.2000 25.1256 -3.4855  9.1575
317 3 3  0.1000 26.2444 -2.7707 10.9367
318 3 3  0.1000 27.1565 -3.4347  9.5041
319 4 2 -0.2000 35.7072 27.1547 16.0246
320 4 3  0.1000 35.3771 26.0190 17.8986
321 4 3  0.1000 34.5853 27.5649 17.5772
322 5 2 -0.2000 -4.3004 14.4296 16.5123
323 5 3  0.1000 -2.7193 13.1706 15.7699
324 5 3  0.1000 -3.6873 13.7973 14.5696
325 6 2 -0.2000 29.2916 11.4488 14.8550
326 6 3  0.1000 29.7161  9.5920 16.0810
327 6 3  0.1000 29.9048 11.0663 16.9791
328 7 2 -0.2000 -1.6786 24.5996 36.1745
329 7 3  0.1000 -2.3264 25.3784 34.2777
330 7 3  0.1000 -0.6860 25.8782 34.6171
331 8 2 -0.2000 22.0137 25.4828  3.4976
332 8 3  0.1000 20.3788 26.0892  4.9976
333 8 3  0.1000 20.1305 26.7091  3.4271
334 9 2 -0.2000  2.7601  0.5891 39.3153
335 9 3  0.1000  1.8689 -0.8958 38.2556
336 9 3  0.1000  0.7492 -0.1851 39.4284
337 10 2 -0.2000  6.8226 39.1476 26.7700
338 10 3  0.1000  6.9704 36.9908 27.1428
339 10 3  0.1000  8.4134 37.8368 27.1849
340 11 2 -0.2000 20.6064 34.4283  5.2789
341 11 3  0.1000 20.9404 34.4397  3.1001
342 11 3  0.1000 22.1036 33.8076  4.0072
343 12 2 -0.2000 36.4123 13.9051 30.6245
344 12 3  0.1000 34.5263 14.3750 31.7286
345 12 3  0.1000 34.5059 12.9809 30.5062
346 13 2 -0.2000 38.4178 25.4112 28.1409
347 13 3  0.1000 36.7243 23.9991 27.6583
348 13 3  0.1000 38.0088 23.3377 28.7132
349 14 2 -0.2000 38.8230 20.3171 23.8615
350 14 3  0.1000 39.5729 19.0115 22.0583
351 14 3  0.1000 40.7563 20.0012 22.9536
352 15 2 -0.2000 29.7338 42.7900 37.0367
353 15 3  0.1000 30.0765 43.8078 35.2966
354 15 3  0.1000 31.3377 44.0615 36.5673
355 16 2 -0.2000 33.1574 26.2088  0.1535
356 16 3  0.1000 32.1858 26.5389  2.1007
357 16 3  0.1000 33.7730 25.8311  2.0736
358 17 2 -0.2000 33.1804 35.1908 34.2362
359 17 3  0.1000 31.1378 35.1576 33.1910
360 17 3  0.1000 31.9830 36.6684 33.3039
361 0 2 -0.2000 38.0742 37.0188  4.2172
362 0 3  0.1000 36.6206 38.4775  4.6990
363 0 3  0.1000 36.1242 36.9396  4.7782
364 1 2 -0.2000  0.9507 16.8223 18.4115
365 1 3  0.1000  2.7526 16.4886 20.0788
366 1 3  0.1000  1.0892 16.4318 20.5180
367 2 2 -0.2000 41.3095 28.8461 38.4495
368 2 3  0.1000 39.9081 27.6915 37.3092
369 2 3  0.1000 40.0994 29.3981 36.9454
370 3 2 -0.2000 23.9089 -2.5449  8.9341
371 3 3  0.1000 24.7967 -4.5302  9.5863
372 3 3  0.1000 25.4894 -3.7143  8.1991
373 4 2 -0.2000 36.6709 28.1036 16.6290
374 4 3  0.1000 35.0708 27.5688 15.2573
375 4 3  0.1000 36.2541 26.3618 15.4385
376 5 2 -0.2000 -5.3019 13.2336 16.4157
377 5 3  0.1000 -4.7674 15.4327 16.4175
378 5 3  0.1000 -3.8932 14.4195 17.4223
379 6 2 -0.2000 29.3901 12.9494 15.2421
380 6 3  0.1000 28.5848 11.2058 14.0864
381 6 3  0.1000 30.3676 11.2133 14.4674
382 7 2 -0.2000 -2.5121 25.6354 36.7336
383 7 3  0.1000 -0.7601 24.2126 36.6620
384 7 3  0.1000 -2.2260 23.6089 36.1995
385 8 2 -0.2000 22.6351 26.4244  2.4678
386 8 3  0.1000 22.1031 24.4269  3.1311
387 8 3  0.1000 22.6742 25.4109  4.4009
388 9 2 -0.2000  3.8574 -0.3703 39.2553
389 9 3  0.1000  2.4540  1.0952 40.3126
390 9 3  0.1000  3.0045  1.4662 38.5813
391 10 2 -0.2000  7.0657 40.6309 27.1008
392 10 3  0.1000  5.7337 38.8522 26.5921
393 10 3  0.1000  7.1612 38.9650 25.7212
394 11 2 -0.2000 19.7423 35.7131  5.1569
395 11 3  0.1000 21.4368 34.5609  6.0426
396 11 3  0.1000 20.0313 33.5767  5.7775
397 12 2 -0.2000 36.8229 12.7177 29.8177
398 12 3  0.1000 37.1547 14.2790 31.3667
399 12 3  0.1000 36.3518 14.8131 29.9636
400 13 2 -0.2000 39.1018 25.2724 26.8743
401 13 3  0.1000 39.0012 25.7211 28.9785
402 13 3  0.1000 37.8108 26.3254 28.1976
403 14 2 -0.2000 37.4055 20.3264 23.3205
404 14 3  0.1000 39.1510 21.3607 23.8065
405 14 3  0.1000 38.8331 20.1675 24.9186
406 15 2 -0.2000 29.9342 41.6332 37.9346
407 15 3  0.1000 28.7258 42.7609 36.5221
408 15 3  0.1000 29.5767 43.6354 37.7137
409 16 2 -0.2000 34.2132 25.2158 -0.2696
410 16 3  0.1000 33.3823 26.9975 -0.4291
411 16 3  0.1000 32.1866 25.8197 -0.1550
412 17 2 -0.2000 32.5890 33.9555 34.8531
413 17 3  0.1000 33.2334 35.9293 34.9925
414 17 3  0.1000 34.2645 34.9558 33.9418
415 0 3  0.1000 38.9219 37.6957  4.3663
416 0 3  0.1000 37.8133 37.1910  3.1754
417 0 2 -0.2000 38.6586 35.5883  4.3896
418 1 3  0.1000  0.2188 17.5277 18.5059
419 1 3  0.1000  0.3217 15.9637 18.0356
420 1 2 -0.2000  1.8282 17.0644 17.2377
421 2 3  0.1000 41.0092 29.8486 38.9554
422 2 3  0.1000 42.4201 28.9361 38.1319
423 2 2 -0.2000 41.2287 27.6359 39.2471
424 3 3  0.1000 23.8921 -1.5819  8.4172
425 3 3  0.1000 23.7009 -2.1565  9.8867
426 3 2 -0.2000 22.7702 -3.3914  8.6839
427 4 3  0.1000 36.1341 28.7710 17.3270
428 4 3  0.1000 37.1329 28.8403 15.9065
429 4 2 -0.2000 37.7643 27.2911 17.2054
430 5 3  0.1000 -4.9884 12.4370 17.1343
431 5 3  0.1000 -5.1417 12.7974 15.4598
432 5 2 -0.2000 -6.7340 13.5873 16.6208
433 6 3  0.1000 29.9097 12.9949 16.1219
434 6 3  0.1000 28.2685 13.3335 15.4319
435 6 2 -0.2000 29.8929 13.7446 13.8857
436 7 3  0.1000 -1.9584 26.6152 36.7577
437 7 3  0.1000 -2.5153 25.3051 37.7628
438 7 2 -0.2000 -3.9152 25.4983 36.2729
439 8 3  0.1000 21.8804 27.2459  2.0765
440 8 3  0.1000 22.9922 25.8587  1.6041
441 8 2 -0.2000 23.7379 27.0111  3.2919
442 9 3  0.1000  3.9346 -0.9230 38.3502
443 9 3  0.1000  3.4181 -1.1498 39.9133
444 9 2 -0.2000  5.2570  0.0870 39.8564
445 10 3  0.1000  7.9100 40.8031 27.7937
446 10 3  0.1000  6.2076 40.9763 27.7412
447 10 2 -0.2000  6.9678 41.5431 25.8266
448 11 3  0.1000 19.0650 35.7939  4.3759
449 11 3  0.1000 20.4820 36.6088  5.0865
450 11 2 -0.2000 19.0829 35.8511  6.5124
451 12 3  0.1000 35.8462 12.2118 29.5618
452 12 3  0.1000 37.2665 12.0556 30.5121
453 12 2 -0.2000 37.8443 12.9009 28.8088
454 13 3  0.1000 39.2813 26.1063 26.2293
455 13 3  0.1000 38.3212 24.8077 26.3241
456 13 2 -0.2000 40.3505 24.3556 26.9039
457 14 3  0.1000 36.9163 19.3951 23.4333
458 14 3  0.1000 37.5248 20.3465 22.2306
459 14 2 -0.2000 36.5137 21.4452 23.6485
460 15 3  0.1000 30.8132 41.0120 37.7529
461 15 3  0.1000 29.0728 40.9503 37.6209
462 15 2 -0.2000 29.6252 41.9370 39.4017
463 16 3  0.1000 34.2725 24.9243 -1.2537
464 16 3  0.1000 33.9698 24.2661  0.1949
465 16 2 -0.2000 35.5521 25.6380  0.4232
466 17 3  0.1000 32.2703 33.1515 34.1044
467 17 3  0.1000 31.6300 34.3875 35.1730
468 17 2 -0.2000 33.4756 33.5136 35.9538
469 0 2 -0.2000 39.5310 34.9999  3.2620
470 0 3  0.1000 37.8319 34.9185  4.6112
471 0 3  0.1000 39.2309 35.6348  5.4093
472 1 2 -0.2000  2.3135 18.6201 17.0857
473 1 3  0.1000  1.4278 16.6533 16.2825
474 1 3  0.1000  2.7668 16.5105 17.4344
475 2 2 -0.2000 41.6329 27.8072 40.6853
476 2 3  0.1000 41.6326 26.7709 38.7254
477 2 3  0.1000 40.1933 27.4354 39.1226
478 3 2 -0.2000 22.1444 -3.9109  9.9591
479 3 3  0.1000 22.7247 -4.2137  7.9085
480 3 3  0.1000 21.9836 -2.6741  8.3293
481 4 2 -0.2000 38.9823 28.1434 17.3892
482 4 3  0.1000 37.8372 26.2903 16.7492
483 4 3  0.1000 37.3848 27.0867 18.2394
484 5 2 -0.2000 -7.2528 13.7266 18.1417
485 5 3  0.1000 -7.4630 12.8542 16.1975
486 5 3  0.1000 -6.8813 14.6885 16.1315
487 6 2 -0.2000 29.6466 15.1817 14.0059
488 6 3  0.1000 29.5352 13.3274 12.9225
489 6 3  0.1000 30.9737 13.7062 13.8139
490 7 2 -0.2000 -4.3797 26.9482 35.8588
491 7 3  0.1000 -4.7181 25.0976 37.0802
492 7 3  0.1000 -3.9653 24.7250 35.4516
493 8 2 -0.2000 25.1106 26.3815  3.3290
494 8 3  0.1000 23.4202 27.2436  4.3688
495 8 3  0.1000 23.8949 27.9807  2.8965
496 9 2 -0.2000  5.6546  1.2975 39.0320
497 9 3  0.1000  6.0048 -0.6259 39.7277
498 9 3  0.1000  5.1257  0.3554 40.9634
499 10 2 -0.2000  7.5131 42.9719 26.0233
500 10 3  0.1000  5.9831 41.6132 25.3132
501 10 3  0.1000  7.5539 41.0694 25.0982
502 11 2 -0.2000 17.9363 36.9243  6.2091
503 11 3  0.1000 19.7108 36.2223  7.2782
504 11 3  0.1000 18.6569 34.9138  6.8870
505 12 2 -0.2000 39.2842 13.2428 29.3450
506 12 3  0.1000 37.5955 13.5159 27.9719
507 12 3  0.1000 37.8945 11.9308 28.2685
508 13 2 -0.2000 41.2732 24.4916 25.7932
509 13 3  0.1000 40.1982 23.2714 27.1375
510 13 3  0.1000 40.8874 24.6346 27.8249
511 14 2 -0.2000 35.2069 20.8206 24.3196
512 14 3  0.1000 36.2927 21.9960 22.6738
513 14 3  0.1000 37.0664 22.0866 24.3418
514 15 2 -0.2000 30.8552 42.6752 39.9028
515 15 3  0.1000 29.4156 41.1258 40.0162
516 15 3  0.1000 28.6356 42.6253 39.4270
517 16 2 -0.2000 36.0751 24.8227  1.5202
518 16 3  0.1000 35.8059 26.7505  0.3537
519 16 3  0.1000 36.2983 25.3003 -0.3447
520 17 2 -0.2000 32.5021 33.5709 37.2239
521 17 3  0.1000 34.3724 34.1976 35.9740
522 17 3  0.1000 33.8712 32.4907 35.7550
523 0 2 -0.2000 40.4470 33.9345  3.6931
524 0 3  0.1000 40.2271 35.6437  2.6259
525 0 3  0.1000 38.8026 34.5875  2.6016
526 1 2 -0.2000  1.4198 19.8356 17.4955
527 1 3  0.1000  2.8152 18.7878 16.1251
528 1 3  0.1000  3.1471 18.6021 17.7386
529 2 2 -0.2000 43.1227 27.6010 40.8572
530 2 3  0.1000 41.0084 27.2847 41.4348
531 2 3  0.1000 41.3409 28.7761 40.9085
532 3 2 -0.2000 21.0922 -2.8195 10.1859
533 3 3  0.1000 22.7934 -4.0685 10.7859
534 3 3  0.1000 21.7256 -4.8908  9.6623
535 4 2 -0.2000 39.7554 27.9754 18.7082
536 4 3  0.1000 38.8403 29.1610 17.0138
537 4 3  0.1000 39.7327 27.7137 16.7092
538 5 2 -0.2000 -6.6420 14.9878 19.0396
539 5 3  0.1000 -7.2524 12.6685 18.5676
540 5 3  0.1000 -8.3464 13.8376 18.1648
541 6 2 -0.2000 30.7373 16.0745 13.4555
542 6 3  0.1000 29.4338 15.4779 15.0120
543 6 3  0.1000 28.8235 15.4639 13.4985
544 7 2 -0.2000 -4.9872 27.6228 37.0432
545 7 3  0.1000 -4.6784 26.9886 34.8602
546 7 3  0.1000 -3.4129 27.4912 35.7643
547 8 2 -0.2000 26.0493 27.2597  2.5778
548 8 3  0.1000 25.1114 25.3685  2.9307
549 8 3  0.1000 25.4814 26.1540  4.3388
550 9 2 -0.2000  6.9443  0.9366 38.2740
551 9 3  0.1000  5.5583  2.1894 39.5689
552 9 3  0.1000  4.8855  1.4302 38.2786
553 10 2 -0.2000  7.8485 43.8297 24.8795
554 10 3  0.1000  8.2834 43.0076 26.7360
555 10 3  0.1000  6.6166 43.5121 26.4991
556 11 2 -0.2000 17.9349 37.9793  7.3336
557 11 3  0.1000 16.9609 36.8495  5.7528
558 11 3  0.1000 18.3657 37.4988  5.4035
559 12 2 -0.2000 39.8325 11.8879 29.4942
560 12 3  0.1000 39.3815 13.8974 30.2155
561 12 3  0.1000 39.8270 13.7738 28.5968
562 13 2 -0.2000 42.4366 23.5795 25.9894
563 13 3  0.1000 41.4456 25.5353 25.4392
564 13 3  0.1000 40.7079 24.0155 24.9652
565 14 2 -0.2000 35.3254 21.2022 25.7605
566 14 3  0.1000 34.9871 19.7682 24.1844
567 14 3  0.1000 34.3249 21.3315 23.9068
568 15 2 -0.2000 30.5177 43.4322 41.1880
569 15 3  0.1000 31.3709 43.2151 39.1435
570 15 3  0.1000 31.6440 41.9366 40.0942
571 16 2 -0.2000 37.4707 25.3193  1.9061
572 16 3  0.1000 36.0557 23.7437  1.5419
573 16 3  0.1000 35.5086 25.1131  2.3882
574 17 2 -0.2000 33.2021 33.0227 38.3897
575 17 3  0.1000 31.5617 33.1381 37.0463
576 17 3  0.1000 32.3007 34.7131 37.3581
577 0 2 -0.2000 39.7013 32.7286  4.2487
578 0 3  0.1000 41.1804 34.3629  4.3990
579 0 3  0.1000 41.0071 33.5421  2.8487
580 1 2 -0.2000  1.4972 20.8619 16.3797
581 1 3  0.1000  1.5481 20.0993 18.5016
582 1 3  0.1000  0.3775 19.4589 17.4727
583 2 2 -0.2000 43.3446 26.6155 41.9150
584 2 3  0.1000 43.6066 28.5502 40.9171
585 2 3  0.1000 43.4657 27.1808 39.9158
586 3 2 -0.2000 20.2184 -3.4767 11.3011
587 3 3  0.1000 20.5932 -2.4963  9.2450
588 3 3  0.1000 21.5823 -1.8742 10.6524
589 4 2 -0.2000 40.1046 29.1186 19.4592
590 4 3  0.1000 40.4919 27.2234 18.5669
591 4 3  0.1000 39.0339 27.4612 19.3407
592 5 2 -0.2000 -7.4260 15.0771 20.3206
593 5 3  0.1000 -6.3756 15.9398 18.6097
594 5 3  0.1000 -5.6496 14.5879 19.4525
595 6 2 -0.2000 30.2209 17.4777 13.2417
596 6 3  0.1000 31.1965 15.5733 12.4961
597 6 3  0.1000 31.5143 16.2497 14.1384
598 7 2 -0.2000 -4.4866 29.0296 37.1658
599 7 3  0.1000 -4.8088 27.0031 37.9685
600 7 3  0.1000 -6.0638 27.6429 36.9130
601 8 2 -0.2000 27.4025 26.9472  3.1985
602 8 3  0.1000 25.8141 28.3450  2.5754
603 8 3  0.1000 26.0703 26.9162  1.5742
604 9 2 -0.2000  8.2534  1.7025 38.4746
605 9 3  0.1000  6.7225  0.9847 37.1754
606 9 3  0.1000  7.1954 -0.1198 38.4730
607 10 2 -0.2000  7.8720 45.2664 25.3900
608 10 3  0.1000  7.2698 43.7313 24.0060
609 10 3  0.1000  8.8186 43.5177 24.5660
610 11 2 -0.2000 17.9531 39.4033  6.8022
611 11 3  0.1000 18.6256 37.7720  8.1886
612 11 3  0.1000 16.9284 37.8300  7.7693
613 12 2 -0.2000 40.9901 11.7293 28.5935
614 12 3  0.1000 39.0368 11.1451 29.5645
615 12 3  0.1000 40.2334 11.9665 30.5366
616 13 2 -0.2000 43.1715 23.8888 27.2973
617 13 3  0.1000 43.2404 23.3391 25.2557
618 13 3  0.1000 42.0334 22.6278 26.1448
619 14 2 -0.2000 34.1965 20.3785 26.4515
620 14 3  0.1000 35.1944 22.2180 26.0969
621 14 3  0.1000 36.3287 20.9952 26.1812
622 15 2 -0.2000 31.4813 44.3609 41.7903
623 15 3  0.1000 30.3345 42.6338 41.9725
624 15 3  0.1000 29.5912 43.9125 41.1628
625 16 2 -0.2000 38.1215 24.0727  2.4409
626 16 3  0.1000 37.5805 26.2017  2.5396
627 16 3  0.1000 37.9213 25.5853  0.9898
628 17 2 -0.2000 34.6356 33.6110 38.7667
629 17 3  0.1000 33.2107 31.9006 38.4621
630 17 3  0.1000 32.5206 33.3356 39.2857
631 0 2 -0.2000 40.5918 31.6040  4.3099
632 0 3  0.1000 38.6533 32.7040  3.8773
633 0 3  0.1000 39.4681 32.8866  5.2706
634 1 2 -0.2000  0.0537 21.1360 16.0906
635 1 3  0.1000  2.0469 20.7374 15.5511
636 1 3  0.1000  1.9910 21.6250 16.8868
637 2 2 -0.2000 43.2314 25.1025 41.6549
638 2 3  0.1000 43.1135 27.0716 42.8109
639 2 3  0.1000 44.5427 26.6815 41.9897
640 3 2 -0.2000 19.6917 -2.4623 12.4090
641 3 3  0.1000 20.6673 -4.3889 11.7764
642 3 3  0.1000 19.3832 -4.0229 10.7450
643 4 2 -0.2000 41.3656 29.7799 18.7480
644 4 3  0.1000 40.1173 29.0124 20.6508
645 4 3  0.1000 39.3312 29.9859 19.3618
646 5 2 -0.2000 -8.5040 16.1917 20.1961
647 5 3  0.1000 -6.8621 15.0755 21.2479
648 5 3  0.1000 -7.9604 14.1557 20.3495
649 6 2 -0.2000 29.3868 17.9790 14.3911
650 6 3  0.1000 29.5325 17.5761 12.4127
651 6 3  0.1000 30.9830 18.2572 13.2142
652 7 2 -0.2000 -3.1161 29.5342 36.6516
653 7 3  0.1000 -4.6009 29.5424 38.1002
654 7 3  0.1000 -5.1903 29.6385 36.5874
655 8 2 -0.2000 28.0069 25.6248  2.8245
656 8 3  0.1000 27.2969 27.0146  4.2258
657 8 3  0.1000 28.0495 27.7640  2.9775
658 9 2 -0.2000  9.3194  0.7288 37.8331
659 9 3  0.1000  8.4918  2.1279 39.4579
660 9 3  0.1000  8.2331  2.5191 37.7831
661 10 2 -0.2000  8.7975 45.5462 26.5041
662 10 3  0.1000  6.7674 45.6199 25.5223
663 10 3  0.1000  8.2089 45.9216 24.6002
664 11 2 -0.2000 16.9298 39.5539  5.6656
665 11 3  0.1000 18.9049 39.8998  6.6502
666 11 3  0.1000 17.5554 40.0654  7.6170
667 12 2 -0.2000 41.6572 10.3877 28.9436
668 12 3  0.1000 41.7340 12.6155 28.5763
669 12 3  0.1000 40.5575 11.7503 27.4885
670 13 2 -0.2000 44.6270 23.8536 26.9787
671 13 3  0.1000 42.7829 23.2628 28.2345
672 13 3  0.1000 42.9235 24.8827 27.5082
673 14 2 -0.2000 34.9105 19.2992 27.1669
674 14 3  0.1000 33.3951 19.8602 25.8783
675 14 3  0.1000 33.7940 21.1448 27.2136
676 15 2 -0.2000 31.9357 45.3842 40.8826
677 15 3  0.1000 32.2566 43.8043 42.2634
678 15 3  0.1000 31.0652 44.9150 42.6464
679 16 2 -0.2000 39.3516 24.7305  3.2254
680 16 3  0.1000 38.4073 23.4395  1.5973
681 16 3  0.1000 37.5481 23.5416  3.2300
682 17 2 -0.2000 34.5365 35.0733 39.0862
683 17 3  0.1000 35.4141 33.5617 37.8306
684 17 3  0.1000 35.0867 33.0476 39.6118
685 0 2 -0.2000 41.7522 32.0149  5.2867
686 0 3  0.1000 40.9736 31.3990  3.2975
687 0 3  0.1000 40.0503 30.7179  4.6097
688 1 2 -0.2000  0.1181 22.2700 15.0799
689 1 3  0.1000 -0.5076 21.5208 16.9863
690 1 3  0.1000 -0.5309 20.2972 15.7662
691 2 2 -0.2000 43.7334 24.2809 42.7929
692 2 3  0.1000 43.8581 24.8674 40.7624
693 2 3  0.1000 42.2995 24.8211 41.3188
694 3 2 -0.2000 18.1976 -2.6408 12.2028
695 3 3  0.1000 20.1247 -1.4464 12.3792
696 3 3  0.1000 19.8632 -2.8606 13.4698
697 4 2 -0.2000 42.0062 31.0758 19.1973
698 4 3  0.1000 41.1178 29.8073 17.6417
699 4 3  0.1000 42.1065 28.9839 18.8147
700 5 2 -0.2000 -9.5067 15.9658 19.0827
701 5 3  0.1000 -8.0686 17.2279 20.0631
702 5 3  0.1000 -9.0093 16.2389 21.0978
703 6 2 -0.2000 30.1472 18.4088 15.5987
704 6 3  0.1000 28.4567 17.4680 14.4769
705 6 3  0.1000 29.0367 18.9555 14.0710
706 7 2 -0.2000 -2.7949 31.0056 36.8722
707 7 3  0.1000 -2.9879 29.2722 35.5104
708 7 3  0.1000 -2.2404 28.9493 36.9935
709 8 2 -0.2000 29.4988 25.3502  3.2428
710 8 3  0.1000 27.9828 25.4645  1.7146
711 8 3  0.1000 27.3983 24.8431  3.2120
712 9 2 -0.2000 10.7030  1.1896 38.2798
713 9 3  0.1000  9.1553  0.4180 36.7617
714 9 3  0.1000  9.2087 -0.2046 38.3259
715 10 2 -0.2000  9.2564 47.0460 26.6250
716 10 3  0.1000  9.5582 44.8129 26.5880
717 10 3  0.1000  8.1782 45.3190 27.4460
718 11 2 -0.2000 16.6995 40.9464  5.0897
719 11 3  0.1000 16.0716 38.8971  5.6742
720 11 3  0.1000 17.4730 39.0412  4.8019
721 12 2 -0.2000 41.0403  9.2218 28.1101
722 12 3  0.1000 41.6032 10.1542 30.1070
723 12 3  0.1000 42.7871 10.5299 28.7221